LAMMPS data file via write_data, version 29 Sep 2021, timestep = 36

500 atoms
2 atom types

0 10 xlo xhi
0 10 ylo yhi
-5 5 zlo zhi

Pair Coeffs # soft

1 100
2 100

Atoms # sphere

274 2 0.28 1 5.775528329785693 3.3046387081521744 -1.9372320864057317 0 0 0
82 1 0.2 1 5.14726529929194 4.087885199621266 -1.913449965377082 0 0 0
281 2 0.28 1 4.162938548793522 4.508189572723671 -1.857851233267156 0 0 0
320 2 0.28 1 5.525962943275425 4.744304440048594 -1.900079154790862 0 0 0
72 1 0.2 1 5.6304610216200635 5.158390368408705 -1.9330781548903688 0 0 0
271 2 0.28 1 4.696815072417639 5.370922123254706 -1.9118744581527423 0 0 0
102 1 0.2 1 5.56813823737583 5.699355575581713 -1.9308411981588423 0 0 0
337 2 0.28 1 4.2737120110718845 6.186069252499513 -1.9203112107923024 0 0 0
327 2 0.28 1 4.62606480296659 6.305650763688994 -1.88354461314015 0 0 0
39 1 0.2 1 5.331855843929507 6.50116892322021 -1.8539074379270466 0 0 0
111 1 0.2 1 4.724979196547055 6.725356366357467 -1.9355506300626093 0 0 0
78 1 0.2 1 5.574391967884448 6.805804233907631 -1.8482407144495476 0 0 0
75 1 0.2 1 6.059909054571721 6.891480186903607 -1.8924987110740032 0 0 0
348 2 0.28 1 6.115139154305281 3.143766408853124 -1.7179664055434831 0 0 0
279 2 0.28 1 4.558671912944662 3.1509442784802846 -1.7714831381392913 0 0 0
374 2 0.28 1 4.799001677547078 3.3518140135483283 -1.8370330441493061 0 0 0
253 2 0.28 1 4.919966871812925 3.883214559817321 -1.8128931502871648 0 0 0
24 1 0.2 1 6.257734557268086 3.7447040047239066 -1.7597926053031314 0 0 0
34 1 0.2 1 6.864429702219222 3.682071653419828 -1.6695255542053982 0 0 0
90 1 0.2 1 6.752522910297473 3.8915752610088843 -1.7041675118078932 0 0 0
282 2 0.28 1 5.256000272459599 4.374563393574402 -1.4603589803162975 0 0 0
361 2 0.28 1 5.407131922955455 4.394965173694307 -1.7445123370831506 0 0 0
117 1 0.2 1 5.699425124888972 4.238074008951929 -1.6901315449225398 0 0 0
26 1 0.2 1 6.111305143438605 4.240750839154355 -1.6959133180863946 0 0 0
80 1 0.2 1 6.701870730007938 4.3413592434215165 -1.7751958145644497 0 0 0
304 2 0.28 1 3.2152369116503916 4.486774108133639 -1.7875645979249686 0 0 0
36 1 0.2 1 5.788457762997828 4.724505894505726 -1.8046279907625495 0 0 0
268 2 0.28 1 6.070547983132265 4.7188524367505 -1.6653858054717883 0 0 0
41 1 0.2 1 3.7042152208744774 4.8781876337203816 -1.7013065050024927 0 0 0
258 2 0.28 1 3.9151944512180967 4.901860555935522 -1.8840813304372432 0 0 0
23 1 0.2 1 4.1110824947762685 4.963489704748378 -1.6285322940109914 0 0 0
356 2 0.28 1 3.8637206238933315 5.190836445443719 -1.7565500452169174 0 0 0
60 1 0.2 1 4.26680304448183 5.477588026656749 -1.7680688848520372 0 0 0
31 1 0.2 1 3.6622317013894494 5.5466733721106 -1.8317920130208796 0 0 0
338 2 0.28 1 3.856912278274279 5.743798216645335 -1.7909833268599096 0 0 0
118 1 0.2 1 4.642802369614506 5.579426110991941 -1.5853525584495405 0 0 0
103 1 0.2 1 6.268327159466374 5.774569151352425 -1.8162732197978875 0 0 0
373 2 0.28 1 3.065619640082875 5.86929087288179 -1.8282994757538193 0 0 0
297 2 0.28 1 4.749993880848679 6.016238167263785 -1.8253180202051418 0 0 0
352 2 0.28 1 4.854923676256688 5.798636798480168 -1.6152027871165573 0 0 0
370 2 0.28 1 4.407924327367716 6.075870901869449 -1.6515143100750982 0 0 0
318 2 0.28 1 6.088181167416359 6.060880766744204 -1.7769533301596312 0 0 0
112 1 0.2 1 5.181928853589077 6.678242271616236 -1.782140945914267 0 0 0
15 1 0.2 1 3.9695872799351752 6.853413870489883 -1.6730786765334562 0 0 0
20 1 0.2 1 5.868983420812932 2.9971497879838975 -1.3431230492685582 0 0 0
366 2 0.28 1 3.161141695529754 3.3084767685776932 -1.4309505147072255 0 0 0
330 2 0.28 1 4.391841522134767 3.680462519023783 -1.466442767282223 0 0 0
285 2 0.28 1 4.92146994633447 3.5428118102118282 -1.6113446617191678 0 0 0
306 2 0.28 1 5.030616038381125 3.5325516386357574 -1.310702808727443 0 0 0
5 1 0.2 1 6.8412518019265125 3.467946632569786 -1.5635625302338632 0 0 0
108 1 0.2 1 5.005171265381565 3.773814158827088 -1.4770294418210201 0 0 0
301 2 0.28 1 4.974611340497612 3.983501621325715 -1.2939909710103499 0 0 0
259 2 0.28 1 3.10358731453474 3.9919953853785968 -1.5335579419199181 0 0 0
25 1 0.2 1 4.989902728257167 4.320304912820582 -1.3885683474549984 0 0 0
339 2 0.28 1 6.293920320422014 4.393512704633865 -1.548510381106616 0 0 0
97 1 0.2 1 6.414960323100112 4.228257905251714 -1.3575822866528042 0 0 0
295 2 0.28 1 2.9623544676424647 4.644876442500603 -1.3449588039211284 0 0 0
353 2 0.28 1 4.365171272900661 4.580479101923719 -1.4020176286138448 0 0 0
110 1 0.2 1 5.088184856149463 4.591005982899181 -1.537705887938673 0 0 0
114 1 0.2 1 6.129075746407251 4.663332692712034 -1.3675402939953145 0 0 0
349 2 0.28 1 3.1882681778206887 4.869925856713365 -1.3727983068970477 0 0 0
64 1 0.2 1 4.572917905026526 4.766007053306959 -1.4308367773452546 0 0 0
355 2 0.28 1 4.552502426563852 5.026610525677368 -1.5312295725579206 0 0 0
89 1 0.2 1 6.3103203228410365 4.752366644987906 -1.5240153058985704 0 0 0
85 1 0.2 1 6.109777977275559 5.038464070315689 -1.5343702042169731 0 0 0
302 2 0.28 1 4.113241748488342 5.323886239662646 -1.5914482651979216 0 0 0
343 2 0.28 1 4.0867245176013975 5.524149878091491 -1.3430167780424127 0 0 0
12 1 0.2 1 4.796055343838434 5.302163892566303 -1.5314576381498286 0 0 0
275 2 0.28 1 5.449577878822016 5.419526656140269 -1.509238504344048 0 0 0
27 1 0.2 1 4.14224859864274 5.659817356529631 -1.5836499313006802 0 0 0
308 2 0.28 1 5.265189810396155 5.681026033656302 -1.501704084686992 0 0 0
354 2 0.28 1 6.126709188859309 5.601337158401188 -1.3263787512324652 0 0 0
77 1 0.2 1 3.889425653728617 5.76748787461713 -1.5138488988729748 0 0 0
299 2 0.28 1 3.9559266495448915 6.03106786275679 -1.581105496768641 0 0 0
47 1 0.2 1 4.726608495100685 6.108977157207661 -1.4209188108429864 0 0 0
37 1 0.2 1 6.664622526459686 6.310802207938769 -1.3472911731094546 0 0 0
332 2 0.28 1 4.4208110409885695 6.571165894889816 -1.4148045868681765 0 0 0
98 1 0.2 1 5.4986827664536815 6.361255787015546 -1.3739876297181415 0 0 0
65 1 0.2 1 6.544212415602157 6.578069025454143 -1.3938891922095276 0 0 0
2 1 0.2 1 4.174019365186812 6.743470694750301 -1.4880333316922343 0 0 0
32 1 0.2 1 5.183384005997043 3.1349887923034787 -1.24336775543325 0 0 0
362 2 0.28 1 5.809372651902717 3.1333643439358227 -1.1058617759928375 0 0 0
272 2 0.28 1 4.135673532052192 3.3733544282576124 -1.0968729028134823 0 0 0
120 1 0.2 1 6.8610507249185115 3.679533705431751 -1.0770128085636594 0 0 0
73 1 0.2 1 3.759307772607268 3.864461797342496 -1.1507830834452628 0 0 0
44 1 0.2 1 4.038898628688836 3.7692523732638232 -1.1753625549261284 0 0 0
6 1 0.2 1 6.297963004232367 3.8642121333927903 -1.1866740673718388 0 0 0
88 1 0.2 1 4.137798549131187 4.095597655857132 -1.2934143623365366 0 0 0
284 2 0.28 1 3.9487038808735284 4.278556565224422 -1.1974050359607404 0 0 0
94 1 0.2 1 3.96737834642646 4.532553120510682 -1.0806449438401449 0 0 0
257 2 0.28 1 6.697550445823182 4.778077054788334 -1.1044636676566948 0 0 0
363 2 0.28 1 6.796776402528414 4.493484975438857 -1.2120792710510775 0 0 0
322 2 0.28 1 5.907526695215826 4.933904906804698 -1.104344991301846 0 0 0
324 2 0.28 1 6.53801687949233 4.82460842815155 -1.3779484958246828 0 0 0
252 2 0.28 1 5.400800605491177 5.255776490203932 -1.1645291425122548 0 0 0
35 1 0.2 1 6.03000385865479 5.142113996635175 -1.2459448947472842 0 0 0
307 2 0.28 1 3.5661124864427594 5.4477573825031635 -1.1740758394224753 0 0 0
273 2 0.28 1 5.721873096526542 5.5211333215800735 -1.3122642037050167 0 0 0
310 2 0.28 1 4.239475107998843 5.551310222829913 -1.062848009920428 0 0 0
323 2 0.28 1 4.472938941518776 5.770178683788572 -1.0716082865554237 0 0 0
367 2 0.28 1 3.014699315659096 6.051398282428924 -1.14906721708787 0 0 0
99 1 0.2 1 4.938664243527997 6.129940975052277 -1.0820322963791118 0 0 0
305 2 0.28 1 5.401802675054316 6.097559637901169 -1.3151657950669366 0 0 0
340 2 0.28 1 3.9705116958220077 6.390071680485304 -1.065266083490693 0 0 0
33 1 0.2 1 5.57651644692594 6.511923484276945 -1.1019997573932632 0 0 0
43 1 0.2 1 3.2893831768489363 6.663053300074792 -1.063185642968484 0 0 0
347 2 0.28 1 6.333971371865913 6.813177879001305 -1.2278660225279463 0 0 0
95 1 0.2 1 5.934245643640983 6.866532673997121 -1.1853481303832252 0 0 0
261 2 0.28 1 6.607883152998833 6.935821522808808 -1.3391877549018196 0 0 0
22 1 0.2 1 6.2515912144053445 3.143113273013883 -0.9883690091972304 0 0 0
42 1 0.2 1 6.4618250465940115 3.2439853431554626 -1.045189032607034 0 0 0
46 1 0.2 1 3.2568256912086277 3.4693921434084847 -0.9262457335955676 0 0 0
372 2 0.28 1 3.9020978764115304 3.450707621515007 -0.8922565687740613 0 0 0
365 2 0.28 1 5.8682074764042405 3.5357906169712985 -1.0012720730386913 0 0 0
18 1 0.2 1 3.3382331637378004 3.6847829412132422 -0.8531070290380656 0 0 0
63 1 0.2 1 3.6092642321694464 3.7252224848959523 -1.025485334956342 0 0 0
288 2 0.28 1 5.6420179697782435 3.7610210626493634 -0.978028089688166 0 0 0
56 1 0.2 1 6.057267731688477 3.7138745099756223 -0.8965216736618808 0 0 0
3 1 0.2 1 6.121383124896996 3.9333344313905463 -0.9696012379784492 0 0 0
315 2 0.28 1 3.402756465786489 4.1279204735196755 -1.040601554811281 0 0 0
55 1 0.2 1 3.8459896843751773 4.21612743080219 -0.9445160247202912 0 0 0
107 1 0.2 1 4.475648074166685 4.2171825194811365 -0.8133950805353909 0 0 0
321 2 0.28 1 3.2790258099692995 4.586788154014753 -0.8514954740421359 0 0 0
292 2 0.28 1 4.78959502735622 4.723624775988807 -1.0383899561308279 0 0 0
358 2 0.28 1 5.409564276416583 4.5467937335124216 -1.0377208567400094 0 0 0
71 1 0.2 1 5.831535349987231 4.614627235389607 -0.9600548068806785 0 0 0
86 1 0.2 1 3.5296609366916405 5.0113629763998855 -1.0224556471325716 0 0 0
51 1 0.2 1 4.793922274277509 5.451663782099105 -0.8868142603369495 0 0 0
4 1 0.2 1 5.377004465747904 5.487077333168368 -0.9835783460640961 0 0 0
316 2 0.28 1 3.6941669410453564 5.768776647154078 -0.8527288710588504 0 0 0
331 2 0.28 1 3.454070558533345 5.560733782070174 -0.8960671770385481 0 0 0
344 2 0.28 1 3.2528662337065537 5.808820786120169 -0.8706775973269988 0 0 0
317 2 0.28 1 4.135516672611638 6.210342504616218 -0.8153182160016369 0 0 0
350 2 0.28 1 4.429760109121842 6.321282117152701 -0.8764022547521569 0 0 0
115 1 0.2 1 5.6176778593182926 6.311781562544304 -0.8872783178870001 0 0 0
9 1 0.2 1 4.716390539759952 6.375801745511499 -0.9000631882343735 0 0 0
79 1 0.2 1 3.0335496757335725 6.8694000541555695 -0.9932898073425935 0 0 0
256 2 0.28 1 3.3557984122800635 6.9039151910245025 -0.8973844511887918 0 0 0
30 1 0.2 1 3.578094292701266 3.0307774301761654 -0.7237310291844099 0 0 0
93 1 0.2 1 6.934552302553575 3.02054901794556 -0.6326553889702333 0 0 0
262 2 0.28 1 3.0419084411309605 3.355170088054226 -0.6563300726266252 0 0 0
329 2 0.28 1 3.6954414382090053 3.284251978753252 -0.57699309409456 0 0 0
312 2 0.28 1 4.48296700300787 3.226419553266102 -0.566568256619651 0 0 0
40 1 0.2 1 5.494726854606871 3.8742453776645687 -0.5579375915964775 0 0 0
290 2 0.28 1 6.326283476933037 3.8463968135632562 -0.6087544423568783 0 0 0
342 2 0.28 1 6.915945932187196 3.859021374458293 -0.710973171886123 0 0 0
96 1 0.2 1 6.672430982703464 3.991787192839728 -0.7494362502676748 0 0 0
67 1 0.2 1 5.302927508159973 4.302629644657778 -0.7035622367186296 0 0 0
106 1 0.2 1 5.883637884111906 4.301918268809988 -0.6596561105268337 0 0 0
14 1 0.2 1 3.0776821244869765 4.603466252611701 -0.5426923551329841 0 0 0
313 2 0.28 1 3.521044919604709 4.6318133393128935 -0.6348412852509556 0 0 0
346 2 0.28 1 4.319539827863792 4.761866410881213 -0.5312780704104093 0 0 0
16 1 0.2 1 5.566683502200378 5.249621481750916 -0.6117562123629061 0 0 0
21 1 0.2 1 3.098187382676874 5.3601326903698725 -0.5903689371926613 0 0 0
17 1 0.2 1 5.392492539879353 5.4490962441291915 -0.7471080138493118 0 0 0
7 1 0.2 1 6.229042688025647 5.520457647051876 -0.668325999131578 0 0 0
19 1 0.2 1 3.680272948134577 6.021903034825905 -0.7329562237631481 0 0 0
294 2 0.28 1 5.6359775451179495 5.874600797367561 -0.5843986433858046 0 0 0
333 2 0.28 1 6.348773475433129 5.8358016045930805 -0.682431604099661 0 0 0
119 1 0.2 1 3.9264737880439653 6.320201627783889 -0.6645032951727459 0 0 0
28 1 0.2 1 5.985631159965708 6.502905543662099 -0.6665276711185126 0 0 0
100 1 0.2 1 3.2831947562672172 6.6542685831218344 -0.7079234713259728 0 0 0
61 1 0.2 1 5.478707553110414 6.637845126743356 -0.7369548244108235 0 0 0
11 1 0.2 1 6.261475249781029 6.614523069753555 -0.7107666519986311 0 0 0
50 1 0.2 1 6.731578260987761 6.820533501385062 -0.7110862810489776 0 0 0
53 1 0.2 1 4.293981368324711 6.944857433412624 -0.7811166340397282 0 0 0
260 2 0.28 1 5.827967108890978 7.01123750345506 -0.49743937301720786 0 0 0
328 2 0.28 1 6.091099745086164 6.939151524897969 -0.6653192599027103 0 0 0
351 2 0.28 1 6.524632874811055 7.003876667034155 -0.7553582419580013 0 0 0
104 1 0.2 1 6.900557731554519 6.989943439089304 -0.6924740813217461 0 0 0
38 1 0.2 1 5.077253549395713 3.400404693745265 -0.3983122233293541 0 0 0
13 1 0.2 1 5.7912981161021815 3.3304725957960506 -0.34001242421119837 0 0 0
277 2 0.28 1 3.9101224215332744 3.6765732311802526 -0.33201089161239716 0 0 0
309 2 0.28 1 5.935650524079944 3.495322945174604 -0.5143304819911511 0 0 0
57 1 0.2 1 3.112865597062216 3.932089824663517 -0.36631688027005493 0 0 0
368 2 0.28 1 4.23030528321135 3.690936828685612 -0.3354463303112966 0 0 0
270 2 0.28 1 4.277379040711145 4.182805632431099 -0.5457120316155664 0 0 0
49 1 0.2 1 4.729024637948636 4.037050703449245 -0.390651589115419 0 0 0
255 2 0.28 1 4.495162200275173 4.17066271065701 -0.31048941597304924 0 0 0
364 2 0.28 1 5.108948291330108 4.0939323851344795 -0.27840304480791245 0 0 0
116 1 0.2 1 6.916291432416202 4.110104619110983 -0.47166660170614105 0 0 0
298 2 0.28 1 3.648200541941755 4.876658872117175 -0.4727012095767128 0 0 0
92 1 0.2 1 6.347766322711374 4.908585810059955 -0.39829032234767925 0 0 0
287 2 0.28 1 6.7257002777074 4.844567428270619 -0.35523305570484753 0 0 0
58 1 0.2 1 4.3119710234037045 5.041010841948458 -0.5107336213321728 0 0 0
280 2 0.28 1 4.50068833003784 5.068762945974601 -0.3011670048819701 0 0 0
376 2 0.28 1 5.92200264843274 5.0985122090664285 -0.3053022205388649 0 0 0
357 2 0.28 1 3.1103495254507436 5.519682210497682 -0.3605921818141743 0 0 0
303 2 0.28 1 5.293429531103626 5.320866890149735 -0.3390562259600529 0 0 0
10 1 0.2 1 5.64388716190301 5.777528942544598 -0.30515550412970777 0 0 0
314 2 0.28 1 3.5754907647990333 6.01573661125106 -0.47289865146425153 0 0 0
52 1 0.2 1 4.3005964119754205 6.03418237383118 -0.2711282704615324 0 0 0
264 2 0.28 1 4.44228187461862 5.801633533219544 -0.3363295304081216 0 0 0
336 2 0.28 1 6.5122889427059745 6.040260059312107 -0.34918314141648965 0 0 0
84 1 0.2 1 3.0189982298850073 6.30324967731873 -0.28267330410083447 0 0 0
291 2 0.28 1 5.66408730794866 6.315384693124976 -0.32946264852278984 0 0 0
101 1 0.2 1 6.9302174243751065 6.164251472411794 -0.42550317497248913 0 0 0
326 2 0.28 1 3.317935967965953 6.549813603772694 -0.282761392315273 0 0 0
87 1 0.2 1 5.7704876953598525 6.586695913032953 -0.40178965516471754 0 0 0
325 2 0.28 1 6.109047797051088 6.715942169272314 -0.43664898732085583 0 0 0
109 1 0.2 1 3.03427144141601 3.000115878880078 -0.052423662530455495 0 0 0
81 1 0.2 1 3.7383625104307696 3.0585288670306054 -0.016426130318280913 0 0 0
70 1 0.2 1 4.4625428201531 3.2741715996354923 -0.23509500743258194 0 0 0
8 1 0.2 1 4.68784185516266 3.2410664323493914 -0.15930142263252667 0 0 0
300 2 0.28 1 6.3512337279278945 3.1852652841179006 -0.24636983044742133 0 0 0
76 1 0.2 1 3.698508761438393 3.637677078120291 -0.15231464477215548 0 0 0
74 1 0.2 1 5.929476690572907 3.5934747141885754 -0.09857730237754304 0 0 0
276 2 0.28 1 3.44005955370244 3.896319426001905 -0.23897738653012918 0 0 0
334 2 0.28 1 3.340456188981418 3.5927429095680483 -0.21248950404542874 0 0 0
360 2 0.28 1 5.90878133596133 6.744522135871542 -0.1886162975963054 0 0 0
369 2 0.28 1 4.632207579435773 3.745743463952352 -0.08383016821599232 0 0 0
283 2 0.28 1 4.878031466894548 3.8319246262418063 -0.2697019763353412 0 0 0
1 1 0.2 1 3.405038202363434 4.094014576136159 -0.043342829546809056 0 0 0
289 2 0.28 1 4.04276594261721 4.308336167215109 -0.06478328228543122 0 0 0
296 2 0.28 1 5.425975204643782 4.365264448041685 -0.00042176339794974815 0 0 0
263 2 0.28 1 6.060469364309903 4.30860595652303 -0.2596887174340379 0 0 0
267 2 0.28 1 6.913212466944573 4.3619319374495795 -0.009927284908447076 0 0 0
254 2 0.28 1 3.99301604227769 4.620622561136551 -0.19661497799521999 0 0 0
113 1 0.2 1 6.236608039232254 4.6713153764937605 -0.20246726935844284 0 0 0
359 2 0.28 1 5.522182018298114 4.808044439522469 -0.026211692689311672 0 0 0
62 1 0.2 1 3.0508232489464913 5.186345043678928 -0.0988508882461352 0 0 0
335 2 0.28 1 3.4203123353084446 5.131573987663863 -0.22216785169782696 0 0 0
68 1 0.2 1 3.939360306345644 5.159959424116038 -0.26122461382974876 0 0 0
311 2 0.28 1 3.7148450638583843 5.1275431363732045 -0.09706272524482706 0 0 0
345 2 0.28 1 5.387432656872448 5.085801152122216 -0.11092953509671763 0 0 0
29 1 0.2 1 6.400137977395271 5.118986082318698 -0.2009144696411278 0 0 0
59 1 0.2 1 6.959664026256494 5.073289292898629 -0.22685425273461934 0 0 0
293 2 0.28 1 5.154520666488729 5.378104044551869 -0.05644424417693796 0 0 0
371 2 0.28 1 5.832483563843553 5.650456142762179 -0.13626283039741102 0 0 0
278 2 0.28 1 6.211670633038352 5.548329475591112 -0.22650374017027386 0 0 0
91 1 0.2 1 3.7534394506851494 5.99291944040009 -0.14685024905457733 0 0 0
286 2 0.28 1 4.689653859501486 5.908374416475853 -0.16358480288386412 0 0 0
269 2 0.28 1 5.779872642884623 5.966445822960309 -0.14946973610363448 0 0 0
48 1 0.2 1 3.5592756264213135 6.133745207137267 -0.13829046919824162 0 0 0
481 2 0.28 1 6.618537195456525 5.7829568299288745 -0.0021814408656795413 0 0 0
266 2 0.28 1 4.08575230595971 6.19316667628677 -0.18760130819313575 0 0 0
105 1 0.2 1 5.035762424597406 6.059070208603083 -0.2070040079797637 0 0 0
375 2 0.28 1 5.431550885751634 6.0757368277179715 -0.09113654405397198 0 0 0
69 1 0.2 1 6.418772516501496 6.309684840640838 -0.12688334944047197 0 0 0
265 2 0.28 1 3.6361937976560825 6.396975534482786 -0.20382869113431945 0 0 0
319 2 0.28 1 4.258117397998132 6.4561714885737125 -0.2469207292025113 0 0 0
83 1 0.2 1 6.70152340629209 6.5038895511552175 -0.1283137342558771 0 0 0
66 1 0.2 1 3.1795752675277034 6.747493058712147 -0.11019212658811295 0 0 0
54 1 0.2 1 4.139000892418708 6.6315551129164305 -0.06402246530694267 0 0 0
341 2 0.28 1 5.072934771921921 6.8147116917254 -0.14059717121561865 0 0 0
187 1 0.2 1 3.5325411222058327 3.0188248563526026 0.10045503188970221 0 0 0
499 2 0.28 1 5.2634177551282875 3.0233971014266494 0.11596742911405802 0 0 0
414 2 0.28 1 6.598032768628576 3.1367423404644907 0.22851618669392382 0 0 0
395 2 0.28 1 3.9196140401748893 3.2356344862209467 0.2916250847240918 0 0 0
443 2 0.28 1 4.0461018708393395 3.2944577485636146 0.0035670360626294533 0 0 0
478 2 0.28 1 4.025248519831565 3.609096990436114 0.058116163101691515 0 0 0
213 1 0.2 1 4.839977725334455 3.5056296961873907 0.11830382147724938 0 0 0
403 2 0.28 1 5.179839714514017 3.566081837083251 0.13743585820190418 0 0 0
138 1 0.2 1 3.087147550697973 3.6888845808286614 0.08314998731163792 0 0 0
426 2 0.28 1 5.808925883628396 3.7385898870931125 0.10833104370603265 0 0 0
475 2 0.28 1 3.3440188200765397 3.946386524529312 0.18678252889132713 0 0 0
491 2 0.28 1 4.1091232521879135 4.493360922495023 0.18777004047050996 0 0 0
232 1 0.2 1 6.1726046339207485 4.914807591325968 0.09911479258683686 0 0 0
445 2 0.28 1 6.911822030279703 4.992862910960271 0.04694450928221672 0 0 0
164 1 0.2 1 4.379786085979913 5.064747064404537 0.2039114470611847 0 0 0
498 2 0.28 1 5.949606279473927 5.084013832993823 0.09256375014620566 0 0 0
495 2 0.28 1 3.922619773504613 5.47053329202837 0.2530391208143157 0 0 0
486 2 0.28 1 5.648556915413847 5.296077360536939 0.17219854433657522 0 0 0
194 1 0.2 1 4.6513744544477085 5.650455902633469 0.21235556072199513 0 0 0
238 1 0.2 1 4.557122018913329 5.549771876330381 0.015925484716857508 0 0 0
133 1 0.2 1 3.144879859008305 5.995790352577246 0.24845576577282324 0 0 0
235 1 0.2 1 3.916953221533933 5.869721403471141 0.1672231349853304 0 0 0
124 1 0.2 1 4.986020411358225 6.04505369767782 0.2174968711181995 0 0 0
432 2 0.28 1 5.8118387480708416 6.0254692428117265 0.16342785243151964 0 0 0
203 1 0.2 1 6.535646784635827 6.041325500558711 0.07359580524382435 0 0 0
424 2 0.28 1 6.793687576336513 5.989275488367168 0.1690389751152527 0 0 0
485 2 0.28 1 3.5091505835834553 6.838698358845925 1.8983418675387933 0 0 0
383 2 0.28 1 3.8086615873332077 6.119217872171396 0.2337408692355499 0 0 0
387 2 0.28 1 5.660407693568748 6.307308506452589 0.1574004989909804 0 0 0
416 2 0.28 1 4.11064607253974 6.410672517597149 0.2013601999412149 0 0 0
163 1 0.2 1 5.724325267004001 6.734762536238303 0.1539465571539229 0 0 0
489 2 0.28 1 6.913593117107448 6.759519224874452 0.23961246490460475 0 0 0
173 1 0.2 1 3.3308153476178415 6.9557185145922595 0.28520370391502575 0 0 0
483 2 0.28 1 3.1495523529789504 6.958253695120057 0.07175483262470644 0 0 0
460 2 0.28 1 3.6999436825047916 6.953471858032733 0.0015179561458147361 0 0 0
198 1 0.2 1 6.254825891579886 6.858759783142601 0.17567527768000746 0 0 0
181 1 0.2 1 5.321818824323999 3.047793753141008 0.38872528950760815 0 0 0
227 1 0.2 1 4.389907327196518 3.1724481918720753 0.3367607939693893 0 0 0
392 2 0.28 1 5.033210542999772 3.1695961971625666 0.40328571126018 0 0 0
151 1 0.2 1 6.002574467567063 3.269076399630437 0.3670485887523034 0 0 0
185 1 0.2 1 3.0002661272884654 3.4728013372387743 0.37207497208010176 0 0 0
430 2 0.28 1 6.965999564140104 3.554674502720439 0.41436722242011115 0 0 0
170 1 0.2 1 6.377690760128987 3.8486054878908234 0.5124349810706614 0 0 0
493 2 0.28 1 3.8282855901998865 3.995914489494597 0.33482493568902116 0 0 0
122 1 0.2 1 6.057123416595684 4.073262723662547 0.32659659643033345 0 0 0
240 1 0.2 1 4.1724447632080155 4.279135237112238 0.4259301453949558 0 0 0
154 1 0.2 1 5.366968115904957 4.457847638555333 0.2708369747059101 0 0 0
195 1 0.2 1 5.754810209034598 4.3621461138115425 0.29944058485415503 0 0 0
188 1 0.2 1 5.910311454505496 4.295151554299581 0.4695756193721629 0 0 0
488 2 0.28 1 4.627282404167244 4.735366838860962 0.31046073618832093 0 0 0
402 2 0.28 1 6.081668901760908 4.609231895585187 0.36046910023338574 0 0 0
450 2 0.28 1 6.597160791790653 4.481427625511507 0.35410197188803094 0 0 0
247 1 0.2 1 4.6922721125615166 5.017395821408087 0.3715704057233271 0 0 0
165 1 0.2 1 4.181909828536108 5.7963953630469325 0.41024479971504724 0 0 0
215 1 0.2 1 5.678337710273782 5.603055642690783 0.37987238503568305 0 0 0
440 2 0.28 1 5.899611472941297 5.767648815607564 0.3314429977394163 0 0 0
390 2 0.28 1 5.143573571994702 6.041024514958739 0.4990229115351208 0 0 0
221 1 0.2 1 6.593906355419421 5.847806615274511 0.3115910710221995 0 0 0
224 1 0.2 1 4.664655163652703 6.3888146933612395 0.2514618624881415 0 0 0
379 2 0.28 1 4.487529475078564 6.378408463053325 0.468127997094151 0 0 0
406 2 0.28 1 6.405742972850144 6.502730569226352 0.3543683985067206 0 0 0
176 1 0.2 1 3.0056913960751572 6.655293835166512 0.523487643582508 0 0 0
219 1 0.2 1 6.06727235534567 6.6464762946807205 0.3270846988666265 0 0 0
159 1 0.2 1 6.553368070515159 6.7267521498756455 0.4345355454662947 0 0 0
174 1 0.2 1 6.751118153551139 6.592629855522886 0.457137776408942 0 0 0
179 1 0.2 1 3.394361512919125 3.0339476317325365 0.5578465287377341 0 0 0
410 2 0.28 1 3.785648128383629 3.3880937436540117 0.6915495929734545 0 0 0
409 2 0.28 1 4.114570145181489 3.294737258798961 0.6564151267015774 0 0 0
186 1 0.2 1 6.4596441151708905 3.4146228610015075 0.6056234191132398 0 0 0
451 2 0.28 1 6.5008219227807365 3.1380769919906677 0.6208058203733041 0 0 0
246 1 0.2 1 3.048415688408422 3.6982344010995885 0.6843954565206815 0 0 0
487 2 0.28 1 3.197992438954608 3.6831621893443898 0.4481001354236329 0 0 0
382 2 0.28 1 5.526376300736506 3.8064864784509345 0.6182433248582497 0 0 0
391 2 0.28 1 6.688297893447955 3.6869752768278614 0.7273499029387182 0 0 0
128 1 0.2 1 4.444932595568212 3.98213371493953 0.7213469886786057 0 0 0
420 2 0.28 1 4.407346789449149 4.277490271850252 0.7789989871806462 0 0 0
421 2 0.28 1 5.46460008153259 4.345601524749976 0.5081304320500492 0 0 0
433 2 0.28 1 5.943680785701561 4.485466736371444 0.6723299342292824 0 0 0
413 2 0.28 1 3.123720724910645 4.44934415858048 0.666034678968674 0 0 0
150 1 0.2 1 4.476005002220629 4.722310518080934 0.760196455688812 0 0 0
183 1 0.2 1 5.457797432828415 4.564698716705066 0.6824519276283829 0 0 0
401 2 0.28 1 3.1524331309611133 4.943632063429631 0.6240900618136349 0 0 0
397 2 0.28 1 4.595970911833739 4.978444876616552 0.6943791055306205 0 0 0
200 1 0.2 1 4.845529165978324 4.808692597695018 0.696489460159321 0 0 0
137 1 0.2 1 5.153735454265837 4.831779845911907 0.7238702414202831 0 0 0
468 2 0.28 1 5.893539676825262 4.843414141669914 0.5425684255606319 0 0 0
497 2 0.28 1 6.206994169055986 4.828933584477869 0.6056649402415711 0 0 0
249 1 0.2 1 4.50632108899564 5.243213062741902 0.7106076920242572 0 0 0
184 1 0.2 1 4.77273169428703 5.30158588211126 0.7539206439414623 0 0 0
492 2 0.28 1 6.712161339685396 5.2956360924503 0.7558058121967157 0 0 0
419 2 0.28 1 3.9526330657580866 5.731085590472485 0.5573150130174516 0 0 0
197 1 0.2 1 5.9623063330763415 5.704790415071692 0.5969881969229566 0 0 0
144 1 0.2 1 6.857602259077877 5.721168321893163 0.6759860583934869 0 0 0
123 1 0.2 1 3.016115771614069 5.857773517657897 0.5995112762784172 0 0 0
225 1 0.2 1 3.4021417202437956 5.795892137473398 0.5591545154150364 0 0 0
231 1 0.2 1 4.426778320339825 5.875881120766744 0.5283520765760215 0 0 0
429 2 0.28 1 4.2332988414413135 5.7759203838307345 0.7043616813893614 0 0 0
167 1 0.2 1 4.646298522645517 5.968186050944432 0.7418382732840619 0 0 0
448 2 0.28 1 3.798665693401669 6.174309001851039 0.6113941104204366 0 0 0
208 1 0.2 1 5.7354742245448165 6.115291924735201 0.7113790245314031 0 0 0
158 1 0.2 1 5.236242603863067 6.300099245857025 0.6831472378615799 0 0 0
214 1 0.2 1 5.3486774618867985 6.45144581212497 0.5346422655199097 0 0 0
431 2 0.28 1 6.8057636785347775 6.470145134008558 0.729267281819725 0 0 0
172 1 0.2 1 3.8882374393541372 6.828810582971212 0.6512780331956716 0 0 0
180 1 0.2 1 3.717970179883673 6.702645946904753 0.538619592134185 0 0 0
145 1 0.2 1 4.165682670271808 6.628639258271381 0.5400137670990142 0 0 0
177 1 0.2 1 5.662073431929889 6.770098496574249 0.7203113503931099 0 0 0
205 1 0.2 1 3.4939105125314325 3.2145457750206017 0.8945308709170156 0 0 0
160 1 0.2 1 4.02742527463276 3.222283559287855 0.9124744584213029 0 0 0
169 1 0.2 1 4.727872953623474 3.3607315497290022 0.8151562953438405 0 0 0
131 1 0.2 1 5.09320028223712 3.4171435592775903 0.9318007784578022 0 0 0
422 2 0.28 1 3.330826326053159 3.6506958166207744 0.7949299631328703 0 0 0
243 1 0.2 1 3.517639068224816 3.4466241540818086 0.8381275355205946 0 0 0
196 1 0.2 1 6.197027839346337 3.44689589387127 0.9792882944360786 0 0 0
435 2 0.28 1 6.685546158841158 3.633128057835221 1.0428511412942103 0 0 0
239 1 0.2 1 4.659621636224735 4.260840029111523 0.9383692773703345 0 0 0
412 2 0.28 1 5.65991964128796 4.2694111267427965 0.9928071661818807 0 0 0
393 2 0.28 1 2.954617940546549 4.699389629723255 0.7723577214885824 0 0 0
162 1 0.2 1 3.697977893380857 4.657601057439303 0.8912059787179136 0 0 0
461 2 0.28 1 6.381311354870587 4.699941309960532 0.9135965066559595 0 0 0
467 2 0.28 1 3.1813929441882127 4.8017069985916025 0.9746900080942706 0 0 0
415 2 0.28 1 3.854680611217292 4.873885723656544 0.8071238991812684 0 0 0
496 2 0.28 1 4.2302182168100115 4.771331729896566 0.8850653021531093 0 0 0
228 1 0.2 1 5.351982544340185 4.770622725491702 0.8561473390348944 0 0 0
229 1 0.2 1 5.964830688650175 4.909384143496577 1.0192997469656633 0 0 0
428 2 0.28 1 5.603359514197036 5.663355109590737 1.0093268915122966 0 0 0
399 2 0.28 1 6.056497664682799 5.556250323800487 0.8991921147793493 0 0 0
202 1 0.2 1 3.647766951773207 6.019158452292512 0.9961076802555975 0 0 0
494 2 0.28 1 3.9471594267278722 5.908485015345963 0.90765291960335 0 0 0
192 1 0.2 1 4.661591684031224 5.783078869736211 0.8938392032440564 0 0 0
472 2 0.28 1 3.2962640841939783 6.310463048196613 0.9524510404804958 0 0 0
182 1 0.2 1 6.435701859940548 6.1580517169227145 1.0002024794241824 0 0 0
236 1 0.2 1 5.061475073571506 6.555643591621696 0.9586271031348249 0 0 0
139 1 0.2 1 6.537813930151606 6.374856516636868 0.9860661201137421 0 0 0
444 2 0.28 1 6.53680832242857 6.6443256132089985 0.9093049257366743 0 0 0
230 1 0.2 1 4.370847251904592 6.82976276047051 0.8227152278752601 0 0 0
474 2 0.28 1 5.4429555666366465 6.720330082746794 0.8875295307667839 0 0 0
237 1 0.2 1 6.2005605377259485 6.8209575600088375 0.8337110685341576 0 0 0
427 2 0.28 1 5.191419393899385 6.91770359538697 0.8696194363761127 0 0 0
233 1 0.2 1 6.268881441684851 3.0903903972778424 1.1914070486982387 0 0 0
437 2 0.28 1 5.08368944660001 3.5685290063584825 1.2670098670139023 0 0 0
447 2 0.28 1 6.246875210564728 3.486697991026875 1.288954606451942 0 0 0
469 2 0.28 1 6.500144903065036 3.6803517844166533 1.3166212729344866 0 0 0
141 1 0.2 1 3.0347912367595318 3.736316217452435 1.2666667230737705 0 0 0
149 1 0.2 1 5.0049298806138935 3.8565034777189156 1.2539500218136004 0 0 0
473 2 0.28 1 6.866925328262235 3.7742424690027705 1.265636098168369 0 0 0
156 1 0.2 1 4.213987123674851 4.1703557000861196 1.1710889666096214 0 0 0
459 2 0.28 1 4.453603559030823 4.026248534171875 1.1562762075010617 0 0 0
142 1 0.2 1 6.691152646993824 4.202538025194098 1.056589437209344 0 0 0
250 1 0.2 1 6.970697760367002 4.033891611033308 1.2503917063532368 0 0 0
438 2 0.28 1 3.6260605913548716 4.639455650556564 1.1867813317438038 0 0 0
136 1 0.2 1 6.83016295723159 4.548822191333781 1.0545697468587059 0 0 0
470 2 0.28 1 3.207868238857653 5.000213004043632 1.2251819027575683 0 0 0
457 2 0.28 1 4.633471452460379 4.754701501575625 1.268136981533904 0 0 0
212 1 0.2 1 5.566660058948519 4.855610747754392 1.249837508075795 0 0 0
166 1 0.2 1 3.67198958992748 5.149982231281872 1.168484346150075 0 0 0