ITEM: TIMESTEP
0
ITEM: NUMBER OF ATOMS
500
ITEM: BOX BOUNDS pp ff pp
0.0000000000000000e+00 1.0000000000000000e+01
0.0000000000000000e+00 1.0000000000000000e+01
-5.0000000000000000e+00 5.0000000000000000e+00
ITEM: ATOMS id type xs ys zs
274 2 0.577553 0.330464 0.306277
82 1 0.514727 0.408789 0.308655
281 2 0.416294 0.450819 0.314215
320 2 0.557046 0.474095 0.31161
72 1 0.563046 0.515839 0.306692
271 2 0.469682 0.537092 0.308813
102 1 0.556814 0.569936 0.306916
337 2 0.427894 0.618177 0.309016
327 2 0.462928 0.629816 0.311804
39 1 0.533186 0.650117 0.314609
111 1 0.472498 0.672536 0.306445
78 1 0.557439 0.68058 0.315176
75 1 0.605991 0.689148 0.31075
348 2 0.611514 0.314377 0.328203
279 2 0.460601 0.319279 0.322178
374 2 0.477071 0.333987 0.32022
253 2 0.491997 0.388321 0.318711
24 1 0.625773 0.37447 0.324021
34 1 0.683797 0.370853 0.333242
90 1 0.677752 0.383967 0.330581
282 2 0.528604 0.440753 0.341868
361 2 0.531674 0.439658 0.338818
117 1 0.569943 0.423807 0.330987
26 1 0.613686 0.426092 0.332514
80 1 0.670187 0.434136 0.32248
304 2 0.321524 0.448677 0.321244
36 1 0.574396 0.472786 0.317919
268 2 0.615212 0.472359 0.341862
41 1 0.37429 0.488732 0.326653
258 2 0.387261 0.493087 0.316232
23 1 0.411108 0.496349 0.337147
356 2 0.386762 0.515269 0.322921
60 1 0.426057 0.547208 0.323981
31 1 0.3707 0.559203 0.318133
338 2 0.381649 0.570317 0.321784
118 1 0.46428 0.557943 0.341465
103 1 0.626833 0.577457 0.318373
373 2 0.306562 0.586929 0.31717
297 2 0.475707 0.600233 0.319329
352 2 0.484464 0.582004 0.33646
370 2 0.440269 0.608017 0.333801
318 2 0.608818 0.606088 0.322305
112 1 0.518193 0.667824 0.321786
15 1 0.396959 0.685341 0.332692
20 1 0.586761 0.300028 0.366232
366 2 0.316114 0.330848 0.356905
330 2 0.439184 0.368046 0.353356
285 2 0.49478 0.359668 0.34611
306 2 0.500848 0.356218 0.362753
5 1 0.684271 0.349339 0.342451
108 1 0.497827 0.374139 0.354291
301 2 0.497828 0.390252 0.364289
259 2 0.310359 0.3992 0.346644
25 1 0.501138 0.432472 0.360422
339 2 0.627443 0.436612 0.343964
97 1 0.640889 0.423548 0.363322
295 2 0.3012 0.469433 0.364892
353 2 0.439999 0.46165 0.359133
110 1 0.512706 0.4552 0.345777
114 1 0.61326 0.467362 0.359541
349 2 0.313862 0.482047 0.363332
64 1 0.453827 0.477929 0.35576
355 2 0.455233 0.49773 0.348699
89 1 0.631253 0.475644 0.349311
85 1 0.610978 0.503846 0.346563
302 2 0.41142 0.536952 0.345005
343 2 0.409874 0.549899 0.35944
12 1 0.479606 0.530216 0.346854
275 2 0.542057 0.546067 0.349195
27 1 0.413802 0.564535 0.343419
308 2 0.52942 0.563988 0.349711
354 2 0.612671 0.560134 0.367362
77 1 0.389836 0.581362 0.345475
299 2 0.394264 0.598021 0.342835
47 1 0.472661 0.610898 0.357908
37 1 0.666462 0.63108 0.365271
332 2 0.442081 0.657117 0.35852
98 1 0.549868 0.636126 0.362601
65 1 0.654421 0.657807 0.360611
2 1 0.417402 0.674347 0.351197
32 1 0.518338 0.313499 0.375663
362 2 0.581074 0.313024 0.388869
272 2 0.412598 0.337656 0.391162
120 1 0.686105 0.367953 0.392299
73 1 0.375545 0.386088 0.385244
44 1 0.40389 0.376925 0.382464
6 1 0.629796 0.386421 0.381333
88 1 0.412127 0.411172 0.371633
284 2 0.393231 0.429689 0.388931
94 1 0.396088 0.446944 0.390361
257 2 0.665953 0.470172 0.376944
363 2 0.672188 0.461747 0.378637
322 2 0.591557 0.494757 0.388636
324 2 0.656362 0.475788 0.368561
252 2 0.54008 0.525578 0.383547
35 1 0.602196 0.512844 0.376335
307 2 0.355468 0.547854 0.387977
273 2 0.572187 0.552113 0.368774
310 2 0.425011 0.556304 0.393227
323 2 0.445979 0.575795 0.392863
367 2 0.30147 0.60514 0.385093
99 1 0.493866 0.612994 0.391797
305 2 0.54018 0.609756 0.368483
340 2 0.397051 0.639007 0.393473
33 1 0.557652 0.651192 0.3898
43 1 0.328938 0.666305 0.393681
347 2 0.639572 0.684083 0.374704
95 1 0.593425 0.686653 0.381465
261 2 0.654614 0.690817 0.368591
22 1 0.629768 0.316523 0.399917
42 1 0.641573 0.322187 0.396727
46 1 0.325683 0.346939 0.407375
372 2 0.391179 0.34475 0.409925
365 2 0.588003 0.359553 0.401902
18 1 0.333823 0.368478 0.414689
63 1 0.361312 0.37288 0.397129
288 2 0.567155 0.37369 0.402058
56 1 0.60283 0.371239 0.407575
3 1 0.6109 0.389921 0.403923
315 2 0.340276 0.412792 0.39594
55 1 0.388542 0.424478 0.397477
107 1 0.447565 0.421718 0.41866
321 2 0.327903 0.458679 0.41485
292 2 0.47896 0.472362 0.396161
358 2 0.540956 0.454679 0.396228
71 1 0.583154 0.461463 0.403995
86 1 0.352966 0.501136 0.397754
51 1 0.479392 0.545166 0.411319
4 1 0.537844 0.548355 0.403838
316 2 0.360967 0.56949 0.412156
331 2 0.35454 0.56185 0.408103
344 2 0.32572 0.58039 0.412872
317 2 0.413877 0.624872 0.420516
350 2 0.437343 0.630393 0.41375
115 1 0.561768 0.631178 0.411272
9 1 0.471639 0.63758 0.409994
79 1 0.303355 0.68694 0.400671
256 2 0.33558 0.690392 0.410262
30 1 0.357809 0.303078 0.427627
93 1 0.693455 0.302055 0.436734
262 2 0.304191 0.335517 0.434367
329 2 0.369544 0.328425 0.442301
312 2 0.448297 0.322642 0.443343
40 1 0.549473 0.387425 0.444206
290 2 0.632628 0.38464 0.439125
342 2 0.687844 0.387947 0.42831
96 1 0.670994 0.397134 0.425649
67 1 0.530293 0.430263 0.429644
106 1 0.588364 0.430192 0.434034
14 1 0.307768 0.460347 0.445731
313 2 0.352535 0.464011 0.437065
346 2 0.431932 0.477006 0.446933
16 1 0.556668 0.524962 0.438824
21 1 0.309867 0.536648 0.441877
17 1 0.539105 0.545262 0.423094
7 1 0.622904 0.552046 0.433167
19 1 0.366538 0.601263 0.430059
294 2 0.563598 0.58746 0.44156
333 2 0.634877 0.58358 0.431757
119 1 0.397955 0.629918 0.430112
28 1 0.598563 0.650291 0.433347
100 1 0.328319 0.665427 0.429208
61 1 0.547871 0.663785 0.426305
11 1 0.626148 0.661452 0.428923
50 1 0.67301 0.683015 0.428814
53 1 0.429398 0.694486 0.421888
260 2 0.593044 0.6977 0.444413
328 2 0.599637 0.694868 0.441374
351 2 0.653067 0.699865 0.424593
104 1 0.689599 0.698556 0.430701
38 1 0.507725 0.34004 0.460169
13 1 0.579148 0.333068 0.465977
277 2 0.391775 0.367101 0.470353
309 2 0.593547 0.349512 0.448588
57 1 0.311287 0.393209 0.463368
368 2 0.41667 0.368743 0.466917
270 2 0.438378 0.416365 0.453829
49 1 0.465961 0.404799 0.463668
255 2 0.449206 0.413367 0.460316
364 2 0.510895 0.409393 0.47216
116 1 0.691629 0.41101 0.452833
298 2 0.364389 0.486836 0.45218
92 1 0.634777 0.490859 0.460171
287 2 0.67257 0.484457 0.464477
58 1 0.431219 0.503281 0.448866
280 2 0.450069 0.506876 0.469883
376 2 0.5922 0.509851 0.46947
357 2 0.310987 0.551334 0.463027
303 2 0.526991 0.533056 0.47088
10 1 0.564787 0.577704 0.46987
314 2 0.359065 0.601526 0.448893
52 1 0.431273 0.599457 0.472681
264 2 0.441173 0.588033 0.469838
336 2 0.651229 0.604026 0.465082
84 1 0.3019 0.630325 0.471733
291 2 0.566409 0.631538 0.467054
101 1 0.693022 0.616425 0.45745
326 2 0.331794 0.654981 0.471724
87 1 0.577049 0.65867 0.459821
325 2 0.607442 0.674258 0.457841
109 1 0.303427 0.300012 0.494758
81 1 0.37366 0.305819 0.498457
70 1 0.447155 0.327285 0.476793
8 1 0.467884 0.324239 0.483767
300 2 0.635123 0.318527 0.475363
76 1 0.375449 0.364674 0.480753
74 1 0.592239 0.360201 0.491359
276 2 0.340417 0.384523 0.480795
334 2 0.337203 0.370648 0.479018
45 1 0.467483 0.39214 0.498702
369 2 0.468554 0.383667 0.490985
283 2 0.479169 0.385879 0.476313
1 1 0.340418 0.402255 0.492808
289 2 0.404893 0.432552 0.495867
296 2 0.542598 0.436526 0.499958
263 2 0.606047 0.430861 0.474031
267 2 0.691321 0.436193 0.499007
254 2 0.399302 0.462062 0.480339
113 1 0.623661 0.467132 0.479753
359 2 0.548598 0.488267 0.495103
62 1 0.305082 0.518635 0.490115
335 2 0.34378 0.513136 0.478507
68 1 0.393569 0.515944 0.474137
311 2 0.370103 0.512827 0.489311
345 2 0.542363 0.501118 0.491183
29 1 0.640014 0.511899 0.479909
59 1 0.695966 0.507329 0.477315
293 2 0.517804 0.536841 0.48957
371 2 0.58285 0.565876 0.48612
278 2 0.621167 0.554833 0.47735
91 1 0.369799 0.603551 0.485538
286 2 0.466496 0.590295 0.482232
269 2 0.578711 0.598006 0.494023
48 1 0.361755 0.609834 0.485855
251 2 0.384675 0.631421 0.4936
266 2 0.407807 0.619259 0.483114
105 1 0.503576 0.605907 0.4793
375 2 0.543155 0.607574 0.490886
69 1 0.641877 0.630968 0.487312
265 2 0.370919 0.636347 0.485129
319 2 0.425135 0.646176 0.47618
83 1 0.670152 0.650389 0.487169
66 1 0.317848 0.676259 0.490411
54 1 0.414426 0.66236 0.492782
341 2 0.507293 0.681471 0.48594
360 2 0.593567 0.674259 0.47757
187 1 0.35343 0.301916 0.509945
499 2 0.52681 0.302535 0.513785
414 2 0.659803 0.313674 0.522852
395 2 0.393891 0.324551 0.52477
443 2 0.402649 0.329381 0.50484
478 2 0.402556 0.359987 0.50572
213 1 0.483998 0.350563 0.51183
403 2 0.517984 0.356608 0.513744
138 1 0.308715 0.368888 0.508315
426 2 0.581601 0.373006 0.509617
475 2 0.33492 0.395521 0.516577
491 2 0.410296 0.447618 0.516432
232 1 0.615975 0.492456 0.509874
445 2 0.691182 0.499286 0.504694
164 1 0.437979 0.506475 0.520391
498 2 0.596246 0.507426 0.509294
495 2 0.392262 0.547053 0.525304
486 2 0.564856 0.529608 0.51722
194 1 0.465137 0.565046 0.521236
238 1 0.455712 0.554977 0.501593
133 1 0.314488 0.599579 0.524846
235 1 0.39155 0.587322 0.516803
124 1 0.498602 0.604505 0.52175
432 2 0.579521 0.601958 0.508129
203 1 0.658178 0.601101 0.508261
424 2 0.673219 0.597436 0.514734
481 2 0.66258 0.582133 0.501873
383 2 0.381556 0.613192 0.5213
387 2 0.567313 0.628209 0.515504
416 2 0.410593 0.640895 0.519724
163 1 0.572433 0.673476 0.515395
489 2 0.691359 0.675952 0.523961
173 1 0.329226 0.695372 0.523718
483 2 0.31892 0.694515 0.510548
460 2 0.369994 0.695347 0.500152
198 1 0.625483 0.685876 0.517568
181 1 0.531713 0.304584 0.536684
227 1 0.438991 0.317245 0.533676
392 2 0.503321 0.31696 0.540329
151 1 0.600257 0.326908 0.536705
185 1 0.300027 0.34728 0.537207
430 2 0.6966 0.355467 0.541437
170 1 0.637769 0.384861 0.551243
493 2 0.382829 0.399591 0.533482
122 1 0.605712 0.407326 0.53266
240 1 0.417244 0.427914 0.542593
154 1 0.537886 0.444858 0.530371
195 1 0.577416 0.435719 0.532336
188 1 0.590435 0.43522 0.55073
488 2 0.462728 0.473537 0.531046
402 2 0.608167 0.460923 0.536047
450 2 0.659716 0.448143 0.53541
247 1 0.469227 0.50174 0.537157
165 1 0.413969 0.578256 0.545937
215 1 0.568118 0.560525 0.537928
440 2 0.589729 0.577113 0.5341
390 2 0.514357 0.604102 0.549902
221 1 0.6602 0.585466 0.530337
224 1 0.460239 0.638516 0.532763
379 2 0.454979 0.638207 0.539196
406 2 0.642378 0.652248 0.536268
176 1 0.300569 0.665529 0.552349
219 1 0.606727 0.664648 0.532708
159 1 0.660491 0.666766 0.543571
174 1 0.668154 0.663197 0.544765
179 1 0.339436 0.303395 0.555785
410 2 0.378565 0.338809 0.569155
409 2 0.409432 0.32779 0.571591
186 1 0.646406 0.338499 0.560725
451 2 0.649641 0.316771 0.561918
246 1 0.310547 0.369248 0.559426
487 2 0.314093 0.368891 0.553824
382 2 0.552638 0.380649 0.561824
391 2 0.668827 0.368559 0.573569
128 1 0.444493 0.398213 0.572135
420 2 0.440735 0.427749 0.5779
421 2 0.545335 0.442242 0.553849
433 2 0.593029 0.443337 0.561068
413 2 0.311004 0.447621 0.567995
150 1 0.443427 0.473063 0.57814
183 1 0.545716 0.449715 0.561922
401 2 0.315243 0.494363 0.562409
397 2 0.458898 0.499909 0.569564
200 1 0.484553 0.480869 0.569649
137 1 0.515374 0.483178 0.572387
468 2 0.594983 0.484081 0.55539
497 2 0.61507 0.483153 0.559433
249 1 0.451331 0.522257 0.570934
184 1 0.477273 0.530159 0.575392
492 2 0.671216 0.529564 0.575581
419 2 0.401783 0.574829 0.553141
197 1 0.595845 0.570879 0.55815
144 1 0.68576 0.572117 0.567599
123 1 0.301612 0.585777 0.559951
225 1 0.340214 0.579589 0.555915
231 1 0.437483 0.585016 0.557
429 2 0.426226 0.579828 0.563949
167 1 0.465139 0.592228 0.578281
448 2 0.379867 0.617431 0.561139
208 1 0.573547 0.611529 0.571138
158 1 0.525259 0.632211 0.566155
214 1 0.533233 0.642944 0.555624
431 2 0.680576 0.647015 0.572927
172 1 0.387891 0.68219 0.564511
180 1 0.37273 0.670956 0.554479
145 1 0.416568 0.662864 0.554001
177 1 0.558796 0.67674 0.576521
205 1 0.349576 0.324317 0.588761
160 1 0.404767 0.323912 0.585298
169 1 0.472787 0.336073 0.581516
131 1 0.50932 0.341714 0.59318
422 2 0.33418 0.3638 0.579764
243 1 0.350482 0.34307 0.584234
196 1 0.619703 0.34469 0.597929
435 2 0.668731 0.363587 0.603664
239 1 0.465962 0.426084 0.593837
412 2 0.565992 0.426941 0.599281
393 2 0.302295 0.470636 0.581619
162 1 0.371813 0.468542 0.588039
461 2 0.638131 0.469994 0.59136
467 2 0.313172 0.479038 0.594599
415 2 0.383452 0.484607 0.581794
496 2 0.427196 0.476301 0.586386
228 1 0.535198 0.477062 0.585615
229 1 0.596483 0.490938 0.60193
428 2 0.560336 0.566336 0.600933
399 2 0.60565 0.555625 0.589919
202 1 0.364777 0.601916 0.599611
494 2 0.394716 0.590849 0.590765
192 1 0.466281 0.583685 0.586398
472 2 0.329626 0.631046 0.595245
182 1 0.644852 0.626263 0.601932
236 1 0.50615 0.65556 0.595866
139 1 0.650184 0.63702 0.598118
444 2 0.653041 0.655465 0.593291
230 1 0.437085 0.682976 0.582272
474 2 0.542874 0.678074 0.584591
237 1 0.620056 0.682096 0.583371
427 2 0.527976 0.685999 0.586634
233 1 0.626888 0.309039 0.619141
437 2 0.508369 0.356853 0.626701
447 2 0.626177 0.349808 0.629058
469 2 0.648525 0.366897 0.631499
141 1 0.303479 0.373632 0.626667
149 1 0.500493 0.38565 0.625395
473 2 0.687677 0.380153 0.626206
156 1 0.423051 0.416042 0.617007
459 2 0.443708 0.403618 0.61573
142 1 0.669115 0.420254 0.605659
250 1 0.695912 0.400525 0.625184
438 2 0.363483 0.467021 0.620183
136 1 0.683016 0.454882 0.605457
470 2 0.320289 0.49777 0.619613
457 2 0.463347 0.47547 0.626814
212 1 0.556666 0.485561 0.624984
166 1 0.369008 0.51324 0.621984
143 1 0.428913 0.545488 0.625197
434 2 0.477158 0.59461 0.607161
132 1 0.577568 0.591326 0.618601
471 2 0.499793 0.627977 0.606893
441 2 0.632238 0.627692 0.617143
398 2 0.455027 0.638854 0.612769
442 2 0.516263 0.633713 0.610015
217 1 0.62955 0.654443 0.616856
439 2 0.374538 0.660178 0.609888
389 2 0.599159 0.664462 0.610479
394 2 0.666773 0.659417 0.627107
189 1 0.422949 0.699591 0.622847
408 2 0.354265 0.329318 0.655002
204 1 0.535284 0.322201 0.638195
484 2 0.322089 0.348453 0.645711
146 1 0.36162 0.349739 0.656011
216 1 0.458794 0.348477 0.654107
148 1 0.385469 0.379131 0.655292
130 1 0.594929 0.377678 0.637994
178 1 0.594549 0.381891 0.642146
407 2 0.328615 0.430538 0.654308
411 2 0.387401 0.447103 0.65215
464 2 0.515728 0.442222 0.633506
193 1 0.535886 0.437273 0.653107
500 2 0.578558 0.423303 0.655555
135 1 0.321334 0.458549 0.635113
245 1 0.403633 0.459953 0.632981
462 2 0.420174 0.468189 0.648946
405 2 0.615164 0.459597 0.647793
241 1 0.360795 0.487705 0.651803
384 2 0.370482 0.496224 0.634533
454 2 0.585488 0.495916 0.657728
436 2 0.381836 0.514693 0.638005
400 2 0.594032 0.502175 0.65758
417 2 0.372127 0.532233 0.632372
218 1 0.49341 0.54468 0.635593
404 2 0.688447 0.526711 0.634414
476 2 0.690734 0.566434 0.657143
480 2 0.31225 0.584878 0.636976
161 1 0.504122 0.580356 0.64099
242 1 0.645778 0.590257 0.644931
388 2 0.676455 0.585212 0.655417
171 1 0.659726 0.607178 0.63588
175 1 0.676625 0.633262 0.635289
147 1 0.570029 0.669319 0.644766
455 2 0.652327 0.663535 0.63833
201 1 0.689836 0.668438 0.637125
121 1 0.362379 0.310994 0.670316
453 2 0.637931 0.303807 0.683762
152 1 0.666943 0.313541 0.680303
452 2 0.380491 0.318086 0.674567
425 2 0.591142 0.327915 0.659153
206 1 0.677821 0.334174 0.660538
191 1 0.482998 0.351167 0.671128
386 2 0.649167 0.350024 0.659392
125 1 0.446991 0.382583 0.679722
244 1 0.609282 0.409429 0.67366
157 1 0.632654 0.411737 0.666684
482 2 0.37336 0.469666 0.678547
168 1 0.656646 0.45353 0.673783
222 1 0.685397 0.471831 0.670325
380 2 0.474463 0.496749 0.662211
199 1 0.561831 0.497393 0.677687
446 2 0.347707 0.507436 0.674697
140 1 0.600173 0.500796 0.678795
465 2 0.334666 0.531236 0.679484
423 2 0.690757 0.552321 0.659325
211 1 0.421038 0.57962 0.680047
396 2 0.414232 0.595399 0.673877
190 1 0.617317 0.64721 0.661836
220 1 0.680647 0.642308 0.665774
385 2 0.301379 0.675175 0.67335
234 1 0.371183 0.66806 0.683816
155 1 0.543897 0.679078 0.660584
458 2 0.657825 0.66249 0.665999
210 1 0.443107 0.696595 0.67428
466 2 0.688409 0.690074 0.66673
377 2 0.489136 0.315136 0.695632
134 1 0.680867 0.327607 0.695145
418 2 0.478001 0.358285 0.688185
126 1 0.571676 0.352192 0.690881
477 2 0.397203 0.394032 0.693327
129 1 0.5638 0.378776 0.690688
248 1 0.598381 0.387773 0.69716
463 2 0.598334 0.405217 0.686338
479 2 0.63796 0.39565 0.697135
127 1 0.456895 0.43373 0.695188
449 2 0.470081 0.457815 0.690549
207 1 0.528394 0.525715 0.69077
226 1 0.48001 0.533617 0.693785
378 2 0.485175 0.539209 0.684563
381 2 0.47587 0.550109 0.689186
490 2 0.58411 0.534092 0.687845
209 1 0.564643 0.558107 0.699903
456 2 0.608983 0.578836 0.698194
223 1 0.345689 0.586975 0.684968
153 1 0.445031 0.638121 0.694017
485 2 0.352144 0.682911 0.689469
ITEM: TIMESTEP
1
ITEM: NUMBER OF ATOMS
500
ITEM: BOX BOUNDS pp ff pp
0.0000000000000000e+00 1.0000000000000000e+01
0.0000000000000000e+00 1.0000000000000000e+01
-5.0000000000000000e+00 5.0000000000000000e+00
ITEM: ATOMS id type xs ys zs
274 2 0.577553 0.330464 0.306277
82 1 0.514727 0.408789 0.308655
281 2 0.416294 0.450819 0.314215
320 2 0.556496 0.474136 0.31141
72 1 0.563046 0.515839 0.306692
271 2 0.469682 0.537092 0.308813
102 1 0.556814 0.569936 0.306916
337 2 0.427835 0.618226 0.308897
327 2 0.462928 0.629816 0.311804
39 1 0.533186 0.650117 0.314609
111 1 0.472498 0.672536 0.306445
78 1 0.557439 0.68058 0.315176
75 1 0.605991 0.689148 0.31075
348 2 0.611514 0.314377 0.328203
279 2 0.460242 0.318959 0.32222
374 2 0.47743 0.334307 0.320178
253 2 0.491997 0.388321 0.318711
24 1 0.625773 0.37447 0.324021
34 1 0.684098 0.370253 0.333352
90 1 0.67745 0.384623 0.330448
282 2 0.528744 0.440531 0.341962
361 2 0.531984 0.439484 0.338597
117 1 0.569943 0.423807 0.330987
26 1 0.613364 0.425846 0.332245
80 1 0.670187 0.434136 0.32248
304 2 0.321524 0.448677 0.321244
36 1 0.574946 0.472745 0.318119
268 2 0.614735 0.472408 0.341049
41 1 0.373816 0.488573 0.327034
258 2 0.387744 0.492818 0.315722
23 1 0.411108 0.496349 0.337147
356 2 0.386753 0.515697 0.32305
60 1 0.426074 0.547219 0.323958
31 1 0.370254 0.558749 0.317984
338 2 0.382082 0.570752 0.321893
118 1 0.46428 0.557943 0.341465
103 1 0.626833 0.577457 0.318373
373 2 0.306562 0.586929 0.31717
297 2 0.475607 0.600441 0.319134
352 2 0.484563 0.581796 0.336655
370 2 0.440329 0.607968 0.333921
318 2 0.608818 0.606088 0.322305
112 1 0.518193 0.667824 0.321786
15 1 0.396959 0.685341 0.332692
20 1 0.586782 0.299981 0.366151
366 2 0.316114 0.330848 0.356905
330 2 0.439184 0.368046 0.353356
285 2 0.494472 0.359234 0.345272
306 2 0.50112 0.355642 0.363504
5 1 0.684273 0.349283 0.342475
108 1 0.497863 0.374666 0.354078
301 2 0.497828 0.390736 0.36459
259 2 0.310359 0.3992 0.346644
25 1 0.501138 0.432472 0.360422
339 2 0.627726 0.436897 0.344175
97 1 0.640929 0.423509 0.363379
295 2 0.300793 0.469028 0.364942
353 2 0.439718 0.461319 0.359201
110 1 0.512256 0.455597 0.345904
114 1 0.613058 0.467139 0.360183
349 2 0.314269 0.482452 0.363282
64 1 0.454077 0.477818 0.355849
355 2 0.455264 0.498172 0.348541
89 1 0.631932 0.475819 0.349482
85 1 0.610978 0.503846 0.346563
302 2 0.411446 0.536552 0.344619
343 2 0.409756 0.549992 0.360153
12 1 0.479606 0.530216 0.346854
275 2 0.542339 0.545667 0.349183
27 1 0.413877 0.564831 0.343116
308 2 0.529138 0.564389 0.349723
354 2 0.612671 0.560134 0.367362
77 1 0.389692 0.580786 0.345608
299 2 0.394422 0.598615 0.342741
47 1 0.472661 0.610898 0.357908
37 1 0.666462 0.63108 0.365271
332 2 0.442081 0.657117 0.35852
98 1 0.549868 0.636126 0.362601
65 1 0.654421 0.657807 0.360611
2 1 0.417402 0.674347 0.351197
32 1 0.518338 0.313499 0.375663
362 2 0.581054 0.313071 0.388951
272 2 0.412709 0.33762 0.391065
120 1 0.686105 0.367953 0.392299
73 1 0.375624 0.386161 0.385178
44 1 0.40389 0.376925 0.382464
6 1 0.629796 0.386421 0.381333
88 1 0.412127 0.411172 0.371633
284 2 0.393399 0.429381 0.38839
94 1 0.396188 0.447552 0.390411
257 2 0.666051 0.470342 0.377209
363 2 0.672781 0.461083 0.378906
322 2 0.591439 0.494558 0.388772
324 2 0.655671 0.476282 0.368027
252 2 0.54008 0.525578 0.383547
35 1 0.602314 0.513044 0.376199
307 2 0.355483 0.54763 0.387655
273 2 0.572187 0.552113 0.368774
310 2 0.424871 0.556174 0.39323
323 2 0.446119 0.575925 0.392861
367 2 0.30147 0.60514 0.385093
99 1 0.493866 0.612994 0.391797
305 2 0.54018 0.609756 0.368483
340 2 0.397051 0.639007 0.393473
33 1 0.557652 0.651192 0.3898
43 1 0.328938 0.666305 0.393681
347 2 0.639076 0.68386 0.374906
95 1 0.593425 0.686653 0.381465
261 2 0.65511 0.69104 0.368389
22 1 0.629096 0.3162 0.400099
42 1 0.642246 0.32251 0.396545
46 1 0.325683 0.346939 0.407375
372 2 0.391069 0.344786 0.410022
365 2 0.587899 0.35903 0.401745
18 1 0.333823 0.368478 0.414689
63 1 0.361233 0.372807 0.397195
288 2 0.566854 0.373894 0.40206
56 1 0.603106 0.371259 0.407788
3 1 0.611028 0.390219 0.403865
315 2 0.340276 0.412792 0.39594
55 1 0.388273 0.424179 0.397968
107 1 0.447565 0.421718 0.41866
321 2 0.327903 0.458679 0.41485
292 2 0.47896 0.472362 0.396161
358 2 0.540956 0.454679 0.396228
71 1 0.583154 0.461463 0.403995
86 1 0.352966 0.501136 0.397754
51 1 0.479392 0.545166 0.411319
4 1 0.537816 0.548423 0.403413
316 2 0.361272 0.569852 0.412349
331 2 0.354221 0.561711 0.408232
344 2 0.32572 0.58039 0.412872
317 2 0.41399 0.624644 0.420338
350 2 0.437691 0.630475 0.41365
115 1 0.561768 0.631178 0.411272
9 1 0.471639 0.63758 0.409994
79 1 0.303355 0.68694 0.400671
256 2 0.33558 0.690392 0.410262
30 1 0.357809 0.303078 0.427627
93 1 0.693455 0.302055 0.436734
262 2 0.304191 0.335517 0.434367
329 2 0.369544 0.328425 0.442301
312 2 0.448297 0.322642 0.443343
40 1 0.549473 0.387425 0.444206
290 2 0.632628 0.38464 0.439125
342 2 0.688324 0.387685 0.428386
96 1 0.670514 0.397396 0.425573
67 1 0.530293 0.430263 0.429644
106 1 0.588364 0.430192 0.434034
14 1 0.307768 0.460347 0.445731
313 2 0.352486 0.463916 0.437003
346 2 0.431935 0.476884 0.446923
16 1 0.556668 0.524962 0.438824
21 1 0.30986 0.536553 0.441741
17 1 0.539133 0.545194 0.423518
7 1 0.622904 0.552046 0.433167
19 1 0.366727 0.601257 0.429583
294 2 0.563598 0.58746 0.44156
333 2 0.634877 0.58358 0.431757
119 1 0.397494 0.630064 0.430389
28 1 0.598563 0.650291 0.433347
100 1 0.328319 0.665427 0.429208
61 1 0.547871 0.663785 0.426305
11 1 0.626148 0.661452 0.428923
50 1 0.67301 0.682858 0.428823
53 1 0.429398 0.694486 0.421888
260 2 0.592663 0.697909 0.444537
328 2 0.59991 0.694908 0.441065
351 2 0.65298 0.699939 0.424574
104 1 0.689688 0.698639 0.430711
38 1 0.507725 0.34004 0.460169
13 1 0.579145 0.333064 0.465981
277 2 0.391873 0.367145 0.470111
309 2 0.59355 0.349515 0.448585
57 1 0.311287 0.393209 0.463368
368 2 0.41703 0.368767 0.466867
270 2 0.437909 0.416495 0.453548
49 1 0.466391 0.404638 0.463706
255 2 0.449181 0.41349 0.460498
364 2 0.510895 0.409393 0.47216
116 1 0.691629 0.41101 0.452833
298 2 0.364438 0.486931 0.452243
92 1 0.634777 0.490859 0.460171
287 2 0.67257 0.484457 0.464477
58 1 0.431216 0.503404 0.448875
280 2 0.450069 0.506876 0.469883
376 2 0.5922 0.509851 0.46947
357 2 0.310994 0.551428 0.463163
303 2 0.527213 0.532964 0.470427
10 1 0.564738 0.577736 0.469826
314 2 0.358876 0.601533 0.449368
52 1 0.430846 0.599949 0.472803
264 2 0.441412 0.587524 0.469624
336 2 0.651229 0.604026 0.465082
84 1 0.3019 0.630325 0.471733
291 2 0.566409 0.631538 0.467054
101 1 0.693022 0.616425 0.45745
326 2 0.331794 0.654981 0.471724
87 1 0.577049 0.65867 0.459821
325 2 0.607786 0.67401 0.45769
109 1 0.303427 0.300012 0.494758
81 1 0.373696 0.305826 0.498437
70 1 0.446972 0.327312 0.476732
8 1 0.468066 0.324212 0.483828
300 2 0.635123 0.318527 0.475363
76 1 0.374991 0.364606 0.481045
74 1 0.592343 0.360075 0.49118
276 2 0.340546 0.384709 0.480613
334 2 0.337073 0.370088 0.478946
45 1 0.467357 0.39265 0.499261
369 2 0.468281 0.383123 0.491013
283 2 0.479632 0.385823 0.475786
1 1 0.340461 0.402681 0.492874
289 2 0.404826 0.432365 0.495612
296 2 0.542598 0.436526 0.499958
263 2 0.606047 0.430861 0.474031
267 2 0.691321 0.436193 0.499007
254 2 0.399302 0.462062 0.480339
113 1 0.623661 0.467132 0.479753
359 2 0.548843 0.487761 0.495257
62 1 0.305082 0.518635 0.490115
335 2 0.343595 0.513138 0.478431
68 1 0.393569 0.515944 0.474137
311 2 0.370288 0.512825 0.489387
345 2 0.542118 0.501624 0.491029
29 1 0.640014 0.511899 0.479909
59 1 0.695966 0.507329 0.477315
293 2 0.517582 0.536933 0.490023
371 2 0.582899 0.565844 0.486165
278 2 0.621167 0.554833 0.47735
91 1 0.370398 0.603083 0.485514
286 2 0.466683 0.590311 0.482324
269 2 0.578679 0.59785 0.493463
48 1 0.361155 0.610303 0.485879
251 2 0.384974 0.631344 0.493974
266 2 0.407985 0.619166 0.483033
105 1 0.503576 0.605907 0.4793
375 2 0.543155 0.607574 0.490886
69 1 0.641877 0.630968 0.487312
265 2 0.370443 0.636518 0.484836
319 2 0.425212 0.64606 0.476061
83 1 0.670152 0.650389 0.487169
66 1 0.317846 0.676219 0.490366
54 1 0.41435 0.662476 0.492901
341 2 0.507293 0.681471 0.48594
360 2 0.593331 0.674259 0.477905
187 1 0.353394 0.30191 0.509966
499 2 0.526743 0.302507 0.51347
414 2 0.659803 0.313674 0.522852
395 2 0.393703 0.324447 0.525198
443 2 0.402838 0.329405 0.504411
478 2 0.402556 0.360067 0.505722
213 1 0.483998 0.350563 0.51183
403 2 0.517984 0.356608 0.513744
138 1 0.308715 0.368888 0.508315
426 2 0.581497 0.373131 0.509796
475 2 0.334876 0.395468 0.516764
491 2 0.410363 0.447805 0.516687
232 1 0.616164 0.492313 0.509879
445 2 0.691182 0.499286 0.504694
164 1 0.437979 0.506475 0.520391
498 2 0.596057 0.50757 0.509289
495 2 0.392262 0.547053 0.525304
486 2 0.564856 0.529608 0.51722
194 1 0.465137 0.565046 0.521236
238 1 0.455712 0.554977 0.501593
133 1 0.314488 0.599579 0.524846
235 1 0.39155 0.587322 0.516803
124 1 0.498602 0.604505 0.52175
432 2 0.579602 0.602008 0.508658
203 1 0.657499 0.601704 0.50817
424 2 0.674187 0.597774 0.515035
481 2 0.662468 0.581354 0.501452
383 2 0.381556 0.613192 0.5213
387 2 0.567263 0.628316 0.515534
416 2 0.410593 0.640895 0.519724
163 1 0.572433 0.673476 0.515395
489 2 0.691359 0.675952 0.523961
173 1 0.329619 0.695405 0.524221
483 2 0.318529 0.694522 0.51009
460 2 0.369994 0.695347 0.500152
198 1 0.625483 0.685876 0.517568
181 1 0.531781 0.304612 0.536999
227 1 0.438991 0.317245 0.533676
392 2 0.503321 0.31696 0.540329
151 1 0.600257 0.326908 0.536705
185 1 0.300027 0.34728 0.537207
430 2 0.6966 0.355467 0.541437
170 1 0.637769 0.384861 0.551243
493 2 0.382829 0.399591 0.533482
122 1 0.605712 0.407326 0.53266
240 1 0.417244 0.427914 0.542593
154 1 0.537814 0.444883 0.530146
195 1 0.57733 0.435722 0.532215
188 1 0.590391 0.434812 0.550335
488 2 0.462728 0.473537 0.531046
402 2 0.608167 0.460923 0.536047
450 2 0.659716 0.448143 0.53541
247 1 0.469227 0.50174 0.537157
165 1 0.414289 0.578383 0.545253
215 1 0.568089 0.560502 0.537933
440 2 0.589715 0.577179 0.533927
390 2 0.514357 0.604102 0.549902
221 1 0.660024 0.585304 0.530548
224 1 0.46058 0.638536 0.532346
379 2 0.454639 0.638187 0.539613
406 2 0.642179 0.652088 0.536187
176 1 0.300569 0.665529 0.552349
219 1 0.606727 0.664648 0.532708
159 1 0.660059 0.667221 0.543554
174 1 0.668785 0.662902 0.544863
179 1 0.339436 0.303395 0.555785
410 2 0.378565 0.338809 0.569155
409 2 0.40964 0.327963 0.570981
186 1 0.646344 0.338912 0.560702
451 2 0.649703 0.316358 0.561941
246 1 0.310304 0.369273 0.559809
487 2 0.314336 0.368867 0.55344
382 2 0.552638 0.380649 0.561824
391 2 0.668827 0.368573 0.573484
128 1 0.444493 0.398213 0.572135
420 2 0.440735 0.427749 0.5779
421 2 0.545384 0.441787 0.55361
433 2 0.593159 0.443742 0.561585
413 2 0.311072 0.447443 0.56789
150 1 0.443942 0.472961 0.577878
183 1 0.545738 0.450145 0.562387
401 2 0.315243 0.494363 0.562409
397 2 0.458999 0.499611 0.569546
200 1 0.484553 0.480869 0.569649
137 1 0.515374 0.483178 0.572387
468 2 0.594464 0.484105 0.555285
497 2 0.615589 0.483129 0.559538
249 1 0.45123 0.522555 0.570953
184 1 0.477273 0.530159 0.575392
492 2 0.671216 0.529564 0.575581
419 2 0.400983 0.574623 0.553366
197 1 0.595888 0.570835 0.558319
144 1 0.68576 0.572117 0.567599
123 1 0.301612 0.585777 0.559951
225 1 0.340214 0.579589 0.555915
231 1 0.438015 0.58526 0.556672
429 2 0.426175 0.579663 0.564736
167 1 0.465064 0.592793 0.577745
448 2 0.379867 0.617431 0.561139
208 1 0.573547 0.611529 0.571138
158 1 0.524969 0.63182 0.566539
214 1 0.533523 0.643334 0.55524
431 2 0.680576 0.647015 0.572927
172 1 0.388078 0.682329 0.564635
180 1 0.372543 0.670817 0.554355
145 1 0.416568 0.662864 0.554001
177 1 0.559336 0.676695 0.576247
205 1 0.349555 0.323879 0.588866
160 1 0.40456 0.323739 0.585908
169 1 0.472787 0.336073 0.581516
131 1 0.50932 0.341714 0.59318
422 2 0.334123 0.363872 0.579748
243 1 0.35056 0.343435 0.584144
196 1 0.619703 0.34469 0.597929
435 2 0.668731 0.363573 0.603749
239 1 0.465962 0.426084 0.593837
412 2 0.565992 0.426941 0.599281
393 2 0.301903 0.470564 0.581338
162 1 0.371542 0.468168 0.588185
461 2 0.638131 0.469994 0.59136
467 2 0.313496 0.479288 0.594986
415 2 0.383724 0.484981 0.581648
496 2 0.42668 0.476404 0.586648
228 1 0.535198 0.477062 0.585615
229 1 0.596483 0.490938 0.60193
428 2 0.560336 0.566336 0.600933
399 2 0.60565 0.555625 0.589919
202 1 0.364777 0.601916 0.599611
494 2 0.394716 0.590849 0.590765
192 1 0.466289 0.583053 0.586806
472 2 0.329626 0.631046 0.595245
182 1 0.644861 0.625558 0.601759
236 1 0.506148 0.655564 0.595863
139 1 0.650443 0.63716 0.598009
444 2 0.653123 0.655997 0.593152
230 1 0.437085 0.682976 0.582272
474 2 0.542845 0.677847 0.584794
237 1 0.620056 0.682096 0.583371
427 2 0.527464 0.686271 0.586704
233 1 0.626888 0.309039 0.619141
437 2 0.508369 0.356853 0.626701
447 2 0.626009 0.34968 0.62904
469 2 0.648693 0.367025 0.631518
141 1 0.303479 0.373632 0.626667
149 1 0.500493 0.38565 0.625395
473 2 0.68752 0.379765 0.626225
156 1 0.42281 0.416187 0.617022
459 2 0.443949 0.403474 0.615715
142 1 0.669115 0.420254 0.605659
250 1 0.696069 0.400912 0.625164
438 2 0.363483 0.467021 0.620183
136 1 0.683016 0.454882 0.605457
470 2 0.320289 0.49777 0.619613
457 2 0.463347 0.47547 0.626814
212 1 0.556666 0.485561 0.624984
166 1 0.368605 0.513208 0.621121
143 1 0.428913 0.545488 0.625197
434 2 0.477225 0.594677 0.607289
132 1 0.577568 0.591326 0.618601
471 2 0.499256 0.62779 0.606791
441 2 0.631896 0.627641 0.617565
398 2 0.455027 0.638854 0.612769
442 2 0.516803 0.633896 0.61012
217 1 0.629542 0.654526 0.616855