LAMMPS (29 Sep 2021 - Update 3)
# Pour 2d granular particles into container

dimension	3
atom_style	sphere
boundary	f f f
newton		off
comm_modify	vel yes

region		reg block 0 100 0 100 -50 50 units box
create_box	1 reg
Created orthogonal box = (0.0000000 0.0000000 -50.000000) to (100.00000 100.00000 50.000000)
  1 by 1 by 2 MPI processor grid

neighbor	0.2 bin
neigh_modify	delay 0

# IMPORTANT NOTE: these values of stiffness (4000) and timestep (0.001)
# are used in this example file to produce a quick simulation and movie.
# More appropriate values for realistic simulations would be
# k = 4.0e5 and dt = 0.0001, as in bench/in.chute (if it were Hertzian).

pair_style      gran/hertz/history 4000.0 NULL 100.0 NULL 0.5 0
pair_coeff	* *

timestep	0.001

fix             1 all nve/sphere
fix		2 all gravity 1.0 spherical 0.0 -180.0
fix		xwalls all wall/gran hertz/history 4000.0 NULL 100.0 NULL 0 1 		xplane 0 100
fix		ywalls all wall/gran hertz/history 4000.0 NULL 100.0 NULL 0 1 		yplane 0 100

 fix		zwalls all wall/gran hertz/history 4000.0 NULL 100.0 NULL 0 1 		zplane -50 NULL

region          slab block 1.0 99.0 1.0 99.0 30 34.5 units box
fix             ins all pour 1000 1 4767548 vol 0.4 10 	        diam range 0.5 1.0 region slab
Particle insertion: 33016 every 3000 steps, 1000 by step 1

compute		1 all erotate/sphere
thermo_style	custom step atoms ke c_1 vol
thermo		1000
thermo_modify	lost ignore norm no
compute_modify	thermo_temp dynamic/dof yes

dump		id all atom 250 dump.pour

#dump		2 all image 500 image.*.jpg type type #		zoom 1.6 adiam 1.5
#dump_modify	2 pad 5

#dump		3 all movie 500 movie.mpg type type #		zoom 1.6 adiam 1.5
#dump_modify	3 pad 5

run		90000
Neighbor list info ...
  update every 1 steps, delay 0 steps, check yes
  max neighbors/atom: 2000, page size: 100000
  master list distance cutoff = 1.2
  ghost atom cutoff = 1.2
  binsize = 0.6, bins = 167 167 167
  1 neighbor lists, perpetual/occasional/extra = 1 0 0
  (1) pair gran/hertz/history, perpetual
      attributes: half, newton off, size, history
      pair build: half/size/bin/newtoff
      stencil: full/bin/3d
      bin: standard
Per MPI rank memory allocation (min/avg/max) = 15.80 | 15.80 | 15.80 Mbytes
Step Atoms KinEng c_1 Volume 
       0        0           -0            0      1000000 
    1000     1000    807.97646            0      1000000 
    2000     1000    1516.9082            0      1000000 
    3000     1000     2465.352            0      1000000 
    4000     1000    3653.3076            0      1000000 
    5000     1000    5080.7752            0      1000000 
    6000     1000    6747.7548            0      1000000 
    7000     1000    8654.2462            0      1000000 
    8000     1000     10800.25            0      1000000 
    9000     1000    13185.765            0      1000000 
   10000     1000    15666.683            0      1000000 
   11000     1000    13998.549    26.707997      1000000 
   12000     1000    9917.2169    113.17482      1000000 
   13000     1000    5052.8426    149.42542      1000000 
   14000     1000    3675.7387     147.7391      1000000 
   15000     1000    2566.9721    148.53464      1000000 
   16000     1000    1698.3531    148.11626      1000000 
   17000     1000    1064.4254    148.23788      1000000 
   18000     1000    658.71683    148.23788      1000000 
   19000     1000    482.24997    147.63757      1000000 
   20000     1000    527.50748    147.60493      1000000 
   21000      999    782.17593    143.61372      1000000 
   22000      999    1271.7003    143.61372      1000000 
   23000      999    1832.2584    143.36499      1000000 
   24000      999    2355.9591    143.32251      1000000 
   25000      999    2685.1253     142.0137      1000000 
   26000      999    2746.1006     145.5094      1000000 
   27000      999    2749.9309    145.61639      1000000 
   28000      999    2532.6281    150.24588      1000000 
   29000      999    2374.7265    157.25408      1000000 
   30000      999    2115.8122    158.33898      1000000 
   31000      999    1822.2364    163.46834      1000000 
   32000      999    1486.1685    165.98342      1000000 
   33000      999    1200.4037    165.56731      1000000 
   34000      999    952.10041    166.74758      1000000 
   35000      999     820.3807    165.14818      1000000 
   36000      999    715.08637    166.39421      1000000 
   37000      999    652.66968    164.03948      1000000 
   38000      999    625.62489    163.55394      1000000 
   39000      999     616.7489    163.70435      1000000 
   40000      999    614.52493    161.55313      1000000 
   41000      999    650.80232    159.98705      1000000 
   42000      999    663.68236    158.00915      1000000 
   43000      999    679.81594     158.2408      1000000 
   44000      999    679.72112    156.67085      1000000 
   45000      999    681.86618       149.02      1000000 
   46000      999    652.58924    148.93731      1000000 
   47000      999    635.30741    148.42929      1000000 
   48000      999    595.32079    146.58293      1000000 
   49000      999    546.62069    148.82927      1000000 
   50000      999    455.67887    148.06728      1000000 
   51000      999    391.45757    144.88391      1000000 
   52000      999    335.01221    143.20949      1000000 
   53000      999    296.57861    142.66036      1000000 
   54000      999    284.09024    140.12081      1000000 
   55000      999    276.60665    138.75453      1000000 
   56000      999    269.10548    136.74803      1000000 
   57000      999    279.89086    133.77623      1000000 
   58000      999    278.65292    133.74252      1000000 
   59000      999    280.74209    131.78563      1000000 
   60000      999    277.60089     129.7137      1000000 
   61000      999    282.83038    125.84406      1000000 
   62000      999     276.4584    123.53751      1000000 
   63000      999    262.19251    122.24587      1000000 
   64000      999     235.6656    118.83053      1000000 
   65000      999     208.8988    115.46334      1000000 
   66000      999    183.73856    114.01877      1000000 
   67000      999    166.11903     110.5929      1000000 
   68000      999    149.96919    108.66954      1000000 
   69000      999    143.27948     106.1744      1000000 
   70000      999    138.76891    105.30336      1000000 
   71000      999    137.85145    103.60285      1000000 
   72000      999    145.92911    102.34623      1000000 
   73000      999    151.23232    100.16907      1000000 
   74000      999    148.93811    97.773504      1000000 
   75000      999     143.2582    95.270525      1000000 
   76000      999    132.00093    93.936446      1000000 
   77000      999    122.37552    93.215242      1000000 
   78000      999    109.18367    92.842434      1000000 
   79000      999    102.01919    90.132508      1000000 
   80000      999    94.200921    88.958622      1000000 
   81000      999     90.38593    85.858047      1000000 
   82000      999    87.932912    84.067775      1000000 
   83000      999    89.423662    81.658415      1000000 
   84000      999    91.919074    79.713553      1000000 
   85000      999    88.621025    79.028165      1000000 
   86000      999    83.734913    78.236404      1000000 
   87000      999    80.125901    77.379496      1000000 
   88000      999    75.466908    76.540508      1000000 
   89000      999    69.836123    76.015703      1000000 
   90000      999    66.672379     72.84018      1000000 
Loop time of 41.3216 on 2 procs for 90000 steps with 999 atoms

Performance: 188182.510 tau/day, 2178.038 timesteps/s
97.5% CPU use with 2 MPI tasks x no OpenMP threads

MPI task timing breakdown:
Section |  min time  |  avg time  |  max time  |%varavg| %total
---------------------------------------------------------------
Pair    | 0.10116    | 0.40568    | 0.7102     |  47.8 |  0.98
Neigh   | 22.493     | 25.328     | 28.162     |  56.3 | 61.29
Comm    | 0.87376    | 0.97757    | 1.0814     |  10.5 |  2.37
Output  | 0.55096    | 0.57628    | 0.60161    |   3.3 |  1.39
Modify  | 0.87079    | 4.7714     | 8.6719     | 178.6 | 11.55
Other   |            | 9.263      |            |       | 22.42

Nlocal:        499.500 ave         999 max           0 min
Histogram: 1 0 0 0 0 0 0 0 0 1
Nghost:         0.00000 ave           0 max           0 min
Histogram: 2 0 0 0 0 0 0 0 0 0
Neighs:        26.0000 ave          52 max           0 min
Histogram: 1 0 0 0 0 0 0 0 0 1

Total # of neighbors = 52
Ave neighs/atom = 0.052052052
Neighbor list builds = 7799
Dangerous builds = 0
Total wall time: 0:00:41
