LAMMPS data file via write_data, version 29 Sep 2021, timestep = 736

500 atoms
2 atom types

0 10 xlo xhi
0 10 ylo yhi
-0.15 0.15 zlo zhi

Pair Coeffs # soft

1 100
2 100

Atoms # sphere

19 1 0.2 1 0.9859912399872314 4.125998948737631 0 0 0 0
61 1 0.2 1 0.9883056309667556 3.854797391360437 0 0 0 0
103 1 0.2 1 1.572555662339 3.141410778730911 0 0 0 0
266 2 0.28 1 1.2661902145104222 3.4103653716393887 0 0 0 0
17 1 0.2 1 1.1791155165241132 3.7095511794541314 0 0 0 0
112 1 0.2 1 1.544838977934314 3.379719826619448 0 0 0 0
368 2 0.28 1 1.8396707662937009 3.224744681125941 0 0 0 0
370 2 0.28 1 1.7554313135254611 3.563553275573213 0 0 0 0
371 2 0.28 1 2.050447880102569 2.805188398218392 0 0 0 0
16 1 0.2 1 2.268805259711359 3.640741681011508 0 0 0 0
46 1 0.2 1 1.7263283743144244 3.8478898254892506 0 0 0 0
47 1 0.2 1 2.409042073351626 3.0348626063778568 0 0 0 0
303 2 0.28 1 2.139161366363381 3.111736908314843 0 0 0 0
338 2 0.28 1 2.0555997503269716 3.460106530564982 0 0 0 0
30 1 0.2 1 2.81482309087658 2.780884245152832 0 0 0 0
64 1 0.2 1 2.5397221127932927 2.833666182066631 0 0 0 0
78 1 0.2 1 2.304088748181844 3.3361805388829433 0 0 0 0
110 1 0.2 1 2.4684151930618587 3.5087538545008594 0 0 0 0
284 2 0.28 1 2.7211650561148586 3.0467043493317094 0 0 0 0
3 1 0.2 1 2.5244372422567216 3.2447933935008066 0 0 0 0
24 1 0.2 1 2.539418479734487 3.818089880518551 0 0 0 0
63 1 0.2 1 2.539418479734487 3.818089880518551 0 0 0 0
74 1 0.2 1 2.677087040108865 3.621892566573038 0 0 0 0
80 1 0.2 1 2.9833951128211456 2.9504812538607252 0 0 0 0
330 2 0.28 1 3.0596481834669667 3.2172912869584853 0 0 0 0
25 1 0.2 1 3.277510240170404 3.389220298986405 0 0 0 0
272 2 0.28 1 3.233831343592826 2.8278915264179334 0 0 0 0
280 2 0.28 1 3.365599689988014 3.1245756847284585 0 0 0 0
287 2 0.28 1 2.776677515463253 3.36175669236872 0 0 0 0
336 2 0.28 1 3.0138159211006705 2.583903581247624 0 0 0 0
382 2 0.28 1 3.36559968814315 3.124575683611567 0 0 0 0
32 1 0.2 1 3.5437509022868428 2.90932513341742 0 0 0 0
43 1 0.2 1 3.637424073739691 3.6496527769840643 0 0 0 0
286 2 0.28 1 3.780094127015348 2.760552226959608 0 0 0 0
326 2 0.28 1 3.4870233751723045 2.6338052665786544 0 0 0 0
364 2 0.28 1 3.553158215745189 3.383829740149031 0 0 0 0
276 2 0.28 1 3.72965356647617 3.1184825202749704 0 0 0 0
374 2 0.28 1 3.72965356647617 3.1184825202749704 0 0 0 0
6 1 0.2 1 4.287470520338697 3.148006865314396 0 0 0 0
70 1 0.2 1 4.198513955516289 2.927106390246854 0 0 0 0
95 1 0.2 1 3.9648356619570833 2.9695916318967233 0 0 0 0
334 2 0.28 1 4.086881983839362 2.671170477848952 0 0 0 0
86 1 0.2 1 4.4875436802320365 3.278800405931019 0 0 0 0
281 2 0.28 1 4.377272452835229 2.5368849985798327 0 0 0 0
315 2 0.28 1 3.781630489273935 2.4411040085725917 0 0 0 0
9 1 0.2 1 4.40793954970286 2.814333005670498 0 0 0 0
38 1 0.2 1 4.697647772753493 3.3881745028911365 0 0 0 0
299 2 0.28 1 4.593860831980357 3.0219234059398907 0 0 0 0
375 2 0.28 1 4.484426686163354 3.572026965868922 0 0 0 0
384 2 0.28 1 4.666461169603316 2.7112121986087963 0 0 0 0
69 1 0.2 1 4.760329851274274 3.6198537505788155 0 0 0 0
84 1 0.2 1 4.760329851274274 3.6198537505788155 0 0 0 0
101 1 0.2 1 4.929955077560597 3.438211509801145 0 0 0 0
251 2 0.28 1 4.910457012075803 2.5065426420193897 0 0 0 0
292 2 0.28 1 4.877899023528827 3.1651238202106207 0 0 0 0
271 2 0.28 1 0.9736651690304488 4.5392767958193225 0 0 0 0
302 2 0.28 1 1.196821356871591 4.310051008017371 0 0 0 0
13 1 0.2 1 1.4807379272295704 4.285399330190422 0 0 0 0
15 1 0.2 1 2.0395655528321575 4.065474553502652 0 0 0 0
58 1 0.2 1 1.5054533044914473 3.9412628030578376 0 0 0 0
265 2 0.28 1 1.455099354655677 3.667392256223425 0 0 0 0
291 2 0.28 1 1.2316031081833485 3.9924496160663625 0 0 0 0
310 2 0.28 1 2.2330223598682726 4.26787643485842 0 0 0 0
350 2 0.28 1 1.4677289305633143 4.781654468147113 0 0 0 0
352 2 0.28 1 1.666765938137996 4.533328472830437 0 0 0 0
1 1 0.2 1 2.4927572015161887 4.40724309044995 0 0 0 0
279 2 0.28 1 2.278748291067241 3.920110472377865 0 0 0 0
283 2 0.28 1 2.2330223598682726 4.26787643485842 0 0 0 0
319 2 0.28 1 2.278748291067241 3.920110472377865 0 0 0 0
325 2 0.28 1 1.9287351217330992 4.355668339976086 0 0 0 0
361 2 0.28 1 1.995487916276717 3.773736554002659 0 0 0 0
317 2 0.28 1 2.519411798965035 4.129641046388846 0 0 0 0
33 1 0.2 1 3.045040645877014 4.1550018015205605 0 0 0 0
39 1 0.2 1 2.8457942838225776 4.286213904066294 0 0 0 0
72 1 0.2 1 2.874330909991011 3.7523155712319882 0 0 0 0
109 1 0.2 1 2.5479833888642944 4.653012828422169 0 0 0 0
305 2 0.28 1 2.51941178849045 4.129641005254096 0 0 0 0
321 2 0.28 1 2.811014612590334 4.0130689730623255 0 0 0 0
366 2 0.28 1 3.1182443089862284 3.887992116859575 0 0 0 0
57 1 0.2 1 3.218958067953446 4.310821903156873 0 0 0 0
288 2 0.28 1 3.044086351531781 3.536133444882109 0 0 0 0
290 2 0.28 1 3.044086351531781 3.536133444882109 0 0 0 0
294 2 0.28 1 3.0197427428085057 4.504434904792252 0 0 0 0
377 2 0.28 1 3.362464543984204 3.686498327496528 0 0 0 0
87 1 0.2 1 3.815663548992292 3.477838389567691 0 0 0 0
90 1 0.2 1 3.3033510976355593 4.536619462770489 0 0 0 0
111 1 0.2 1 3.629617922096755 3.8891462327535615 0 0 0 0
260 2 0.28 1 3.4059523549921367 4.057154072659464 0 0 0 0
296 2 0.28 1 3.4059523549921367 4.057154072659464 0 0 0 0
363 2 0.28 1 3.553158215745189 3.383829740149031 0 0 0 0
376 2 0.28 1 3.7022913274735534 4.218551759221994 0 0 0 0
29 1 0.2 1 3.8542791098716194 3.745521938432299 0 0 0 0
108 1 0.2 1 3.815663548992292 3.477838389567691 0 0 0 0
285 2 0.28 1 3.7022913274735534 4.218551759221994 0 0 0 0
345 2 0.28 1 3.7022913274735534 4.218551759221994 0 0 0 0
381 2 0.28 1 3.7022913274735534 4.218551759221994 0 0 0 0
8 1 0.2 1 4.275813663681539 3.386112091011323 0 0 0 0
27 1 0.2 1 3.850504212194171 3.9818100862686885 0 0 0 0
270 2 0.28 1 4.075478542307969 3.5778059644907048 0 0 0 0
301 2 0.28 1 4.075478542307969 3.5778059644907048 0 0 0 0
341 2 0.28 1 4.0237064783582905 3.2623386989121146 0 0 0 0
351 2 0.28 1 4.02086586803996 4.201899292466436 0 0 0 0
358 2 0.28 1 4.02086586803996 4.201899292466436 0 0 0 0
7 1 0.2 1 4.282480171376144 3.7650640567595204 0 0 0 0
65 1 0.2 1 4.067830171094244 3.880391314027946 0 0 0 0
100 1 0.2 1 4.282480171376144 3.7650640567595204 0 0 0 0
261 2 0.28 1 4.484426686163354 3.572026965868922 0 0 0 0
340 2 0.28 1 4.297403704690349 4.04332681199156 0 0 0 0
373 2 0.28 1 4.297403704690349 4.04332681199156 0 0 0 0
44 1 0.2 1 4.504094539962616 3.854822772238744 0 0 0 0
51 1 0.2 1 4.504094539962616 3.854822772238744 0 0 0 0
107 1 0.2 1 4.5727516969613875 4.085413601575138 0 0 0 0
289 2 0.28 1 4.7811467604819295 3.8986554563022158 0 0 0 0
298 2 0.28 1 4.7811467604819295 3.8986554563022158 0 0 0 0
333 2 0.28 1 4.7811467604819295 3.8986554563022158 0 0 0 0
76 1 0.2 1 4.904519714702969 4.39085207189968 0 0 0 0
5 1 0.2 1 4.903728276068516 4.810907377032717 0 0 0 0
252 2 0.28 1 4.896838603094533 5.087424947331027 0 0 0 0
4 1 0.2 1 1.2019474709078983 4.699893512054342 0 0 0 0
62 1 0.2 1 1.3883492701054125 4.513418126540854 0 0 0 0
383 2 0.28 1 1.3008503693295068 5.339972570926606 0 0 0 0
20 1 0.2 1 1.3055011748472654 5.008990647015299 0 0 0 0
278 2 0.28 1 1.711471564197681 4.126996974684039 0 0 0 0
353 2 0.28 1 1.970261822881738 4.669879572648493 0 0 0 0
362 2 0.28 1 1.5509106746786192 5.142659235243898 0 0 0 0
365 2 0.28 1 1.7400812361460376 5.398797625128035 0 0 0 0
93 1 0.2 1 2.1330112540563695 4.897557112997138 0 0 0 0
348 2 0.28 1 2.2774250336913955 4.584678430181973 0 0 0 0
349 2 0.28 1 1.7596952311040421 4.9040859870608005 0 0 0 0
85 1 0.2 1 2.5479833888642944 4.653012828422169 0 0 0 0
91 1 0.2 1 2.2147722121512734 5.6846644163574425 0 0 0 0
312 2 0.28 1 2.4130151739820693 4.8976392367792 0 0 0 0
331 2 0.28 1 2.2774250336913955 4.584678430181973 0 0 0 0
335 2 0.28 1 2.4130151739820693 4.8976392367792 0 0 0 0
339 2 0.28 1 2.2774250336913955 4.584678430181973 0 0 0 0
31 1 0.2 1 3.0962591742733205 4.774014087660056 0 0 0 0
36 1 0.2 1 2.718475984924828 4.483972467846449 0 0 0 0
259 2 0.28 1 2.8117846085550062 4.747592315854949 0 0 0 0
297 2 0.28 1 2.8117846085550062 4.747592315854949 0 0 0 0
314 2 0.28 1 2.8117846085550062 4.747592315854949 0 0 0 0
320 2 0.28 1 2.4130151739820693 4.8976392367792 0 0 0 0
68 1 0.2 1 3.3033510976355593 4.536619462770489 0 0 0 0
75 1 0.2 1 3.0962591742733205 4.774014087660056 0 0 0 0
104 1 0.2 1 2.991020550169373 5.298154057904401 0 0 0 0
264 2 0.28 1 3.0197427428085057 4.504434904792252 0 0 0 0
316 2 0.28 1 3.0197427428085057 4.504434904792252 0 0 0 0
344 2 0.28 1 2.9694528447232185 5.0228385521940435 0 0 0 0
360 2 0.28 1 3.0197427428085057 4.504434904792252 0 0 0 0
379 2 0.28 1 3.2716892448055845 5.123562187006452 0 0 0 0
380 2 0.28 1 3.372131010637078 4.819877332315176 0 0 0 0
22 1 0.2 1 3.449690199357852 4.33344798551852 0 0 0 0
300 2 0.28 1 3.372131010637078 4.819877332315176 0 0 0 0
309 2 0.28 1 3.5801832403180547 4.577448261151846 0 0 0 0
347 2 0.28 1 3.5801832403180547 4.577448261151846 0 0 0 0
21 1 0.2 1 3.866267427792487 4.448024689091998 0 0 0 0
26 1 0.2 1 3.650539242678809 4.847710978449171 0 0 0 0
35 1 0.2 1 3.5429577744164678 5.0588812401742915 0 0 0 0
60 1 0.2 1 3.866267427792487 4.448024689091998 0 0 0 0
82 1 0.2 1 3.831475197865497 4.694293209183464 0 0 0 0
307 2 0.28 1 3.790422743971877 5.188774296046506 0 0 0 0
313 2 0.28 1 3.790422743971877 5.188774296046506 0 0 0 0
34 1 0.2 1 4.0545160791306145 5.109154235852197 0 0 0 0
59 1 0.2 1 4.064801313585196 4.676767515387202 0 0 0 0
99 1 0.2 1 3.888949215248088 4.926940882987862 0 0 0 0
267 2 0.28 1 4.0485280982232235 5.387843224754285 0 0 0 0
327 2 0.28 1 4.0485280982232235 5.387843224754285 0 0 0 0
106 1 0.2 1 4.285448317461205 5.160599345090719 0 0 0 0
114 1 0.2 1 4.148991884242989 4.895213958768997 0 0 0 0
115 1 0.2 1 4.379952794737633 4.943169187566027 0 0 0 0
274 2 0.28 1 4.221860068789576 4.448965719388583 0 0 0 0
282 2 0.28 1 4.221860068789576 4.448965719388583 0 0 0 0
359 2 0.28 1 4.221860068789576 4.448965719388583 0 0 0 0
12 1 0.2 1 4.680549006731708 4.307038347586354 0 0 0 0
37 1 0.2 1 4.223673517312196 5.605614235442928 0 0 0 0
52 1 0.2 1 4.771541393755319 5.3354526064650925 0 0 0 0
55 1 0.2 1 4.794368702014906 4.601963321018436 0 0 0 0
71 1 0.2 1 4.762934023066951 5.574733588253844 0 0 0 0
73 1 0.2 1 4.306291865650496 4.715499341819087 0 0 0 0
94 1 0.2 1 4.680549006731708 4.307038347586354 0 0 0 0
113 1 0.2 1 4.443014304941455 4.280267555773611 0 0 0 0
254 2 0.28 1 4.7811467604819295 3.8986554563022158 0 0 0 0
256 2 0.28 1 4.633262006433473 4.841672713902668 0 0 0 0
275 2 0.28 1 4.525734901095899 4.544220143333517 0 0 0 0
293 2 0.28 1 4.563500113149318 5.15271875805402 0 0 0 0
311 2 0.28 1 4.762117237720883 5.865277630379078 0 0 0 0
143 1 0.2 1 4.904519714702969 4.39085207189968 0 0 0 0
436 2 0.28 1 4.951894090803532 2.854475261764956 0 0 0 0
355 2 0.28 1 4.967656496955342 6.315314560993903 0 0 0 0
45 1 0.2 1 1.2737951628075415 5.61841007709635 0 0 0 0
79 1 0.2 1 1.499018582636713 5.537174128256922 0 0 0 0
83 1 0.2 1 1.0965116948385707 5.149333804796851 0 0 0 0
263 2 0.28 1 1.4959303446599388 5.816609024324846 0 0 0 0
372 2 0.28 1 0.9956279599261132 4.888499096789709 0 0 0 0
11 1 0.2 1 1.9648110670790035 5.090479570715129 0 0 0 0
66 1 0.2 1 1.7448873131540699 5.678232469513316 0 0 0 0
367 2 0.28 1 1.7846119714789044 5.955198870860504 0 0 0 0
41 1 0.2 1 2.044546440100124 5.852682519930364 0 0 0 0
42 1 0.2 1 2.0068217402438457 5.325193839798083 0 0 0 0
97 1 0.2 1 1.9817402133015152 5.603963363567581 0 0 0 0
262 2 0.28 1 2.090290204526039 6.255783342608882 0 0 0 0
328 2 0.28 1 2.2820970476477718 6.000383618961816 0 0 0 0
356 2 0.28 1 2.233608954792413 5.162567302027227 0 0 0 0
318 2 0.28 1 2.484769191589319 5.754436256962386 0 0 0 0
369 2 0.28 1 2.4983099849981816 6.23562196789724 0 0 0 0
18 1 0.2 1 2.7661626984400782 5.215306584362805 0 0 0 0
49 1 0.2 1 2.2107409856975884 5.445930788209515 0 0 0 0
50 1 0.2 1 2.7624070595546506 5.771871786301533 0 0 0 0
77 1 0.2 1 2.5114135031924976 5.159857480630142 0 0 0 0
89 1 0.2 1 2.6797801995254065 4.992026744531337 0 0 0 0
102 1 0.2 1 2.6404842197653067 5.986864674476432 0 0 0 0
268 2 0.28 1 2.816319105002406 6.209030341430512 0 0 0 0
323 2 0.28 1 3.1148156615069027 6.411750971404861 0 0 0 0
342 2 0.28 1 2.7984774534738976 6.527096525108919 0 0 0 0
40 1 0.2 1 2.9373754559558125 5.959226245811244 0 0 0 0
255 2 0.28 1 2.4859913643361873 5.435958503978651 0 0 0 0
257 2 0.28 1 3.0304964579178373 5.6987848461453074 0 0 0 0
306 2 0.28 1 3.2716892448055845 5.123562187006452 0 0 0 0
332 2 0.28 1 2.793887576599333 5.493064155196774 0 0 0 0
14 1 0.2 1 3.377210642609275 6.5170321019788275 0 0 0 0
116 1 0.2 1 3.2689923348693553 5.835724641893608 0 0 0 0
269 2 0.28 1 3.473731602701469 5.6472273612517725 0 0 0 0
295 2 0.28 1 3.46018056788504 6.250360846697988 0 0 0 0
346 2 0.28 1 3.1791588878821173 6.099307109026105 0 0 0 0
2 1 0.2 1 3.6361681175314926 6.468013506160666 0 0 0 0
23 1 0.2 1 3.674072043496191 6.072144218563955 0 0 0 0
54 1 0.2 1 3.7875875249734525 6.282302440648331 0 0 0 0
56 1 0.2 1 3.488709543042452 5.924968706880072 0 0 0 0
67 1 0.2 1 3.9548477137409725 6.453621815178239 0 0 0 0
273 2 0.28 1 3.2219305837322487 5.450059861647427 0 0 0 0
322 2 0.28 1 3.51136698078314 5.334653739233923 0 0 0 0
324 2 0.28 1 3.949486363335216 6.054532287624062 0 0 0 0
343 2 0.28 1 3.7514452831676017 5.803353872181958 0 0 0 0
28 1 0.2 1 3.991343512064919 5.6616410590775645 0 0 0 0
53 1 0.2 1 3.7884472772958744 5.491233863670451 0 0 0 0
81 1 0.2 1 4.565399956783911 6.302410495766725 0 0 0 0
98 1 0.2 1 4.117281557182763 6.277057664483626 0 0 0 0
337 2 0.28 1 4.331681701267887 6.456073208243623 0 0 0 0
354 2 0.28 1 4.212304437025444 5.882117323931689 0 0 0 0
378 2 0.28 1 4.0485280982232235 5.387843224754285 0 0 0 0
92 1 0.2 1 4.329295249119492 5.393173177652443 0 0 0 0
253 2 0.28 1 4.482061941618826 5.711985179792148 0 0 0 0
277 2 0.28 1 4.482061941618826 5.711985179792148 0 0 0 0
329 2 0.28 1 4.4906825151823595 6.033524854062536 0 0 0 0
10 1 0.2 1 4.746660702609562 6.144674631272344 0 0 0 0
48 1 0.2 1 4.561410958309832 5.444698999267864 0 0 0 0
105 1 0.2 1 4.735498216180643 6.471235054343846 0 0 0 0
304 2 0.28 1 4.762117237720883 5.865277630379078 0 0 0 0
146 1 0.2 1 4.899892801064927 4.152187469402784 0 0 0 0
96 1 0.2 1 4.975402492392713 5.685081019796494 0 0 0 0
127 1 0.2 1 5.125388864279788 3.302082302045214 0 0 0 0
164 1 0.2 1 5.137900182443075 3.0633143975271024 0 0 0 0
400 2 0.28 1 5.208767544787534 2.619870708081842 0 0 0 0
227 1 0.2 1 8.805378463883608 5.125084971463882 0 0 0 0
441 2 0.28 1 5.391609768353931 3.2176249209537975 0 0 0 0
157 1 0.2 1 5.2968178803146015 2.8846955710128475 0 0 0 0
175 1 0.2 1 5.5495768201251705 2.7318876855029712 0 0 0 0
408 2 0.28 1 5.391609768353931 3.2176249209537975 0 0 0 0
498 2 0.28 1 5.485307815621611 2.4595900545401257 0 0 0 0
201 1 0.2 1 5.520384759129744 2.969699508357287 0 0 0 0
124 1 0.2 1 5.997167521356597 3.7242494566126454 0 0 0 0
386 2 0.28 1 5.804764868986961 2.604407615319774 0 0 0 0
417 2 0.28 1 5.728102588639753 3.1562665927711704 0 0 0 0
121 1 0.2 1 6.005028983729633 3.122134226126304 0 0 0 0
130 1 0.2 1 6.226010165020508 3.0289029145755952 0 0 0 0
138 1 0.2 1 6.294623635642501 2.799398464094999 0 0 0 0
404 2 0.28 1 6.018001219216014 2.8427066666930467 0 0 0 0
427 2 0.28 1 6.213865016601419 3.3080099336512307 0 0 0 0
486 2 0.28 1 6.157635797405637 2.555357123700577 0 0 0 0
125 1 0.2 1 6.414978877279462 3.502838518911841 0 0 0 0
147 1 0.2 1 6.753195032798478 2.8711628145205137 0 0 0 0
174 1 0.2 1 6.414978877279462 3.502838518911841 0 0 0 0
179 1 0.2 1 6.714063616995427 3.1870625699343322 0 0 0 0
191 1 0.2 1 6.491890177704261 3.275965029824428 0 0 0 0
426 2 0.28 1 6.547827630383582 2.6803291152501334 0 0 0 0
439 2 0.28 1 6.503622144208074 2.9969652617084246 0 0 0 0
489 2 0.28 1 6.213865016601454 3.308009933651205 0 0 0 0
194 1 0.2 1 6.911637128096312 3.0512656437467327 0 0 0 0
474 2 0.28 1 6.87329955497916 2.61852045058258 0 0 0 0
141 1 0.2 1 7.116755879495774 3.489367092638413 0 0 0 0
142 1 0.2 1 7.175566445411125 3.7219274548142596 0 0 0 0
236 1 0.2 1 7.044639330039336 2.8517273675715664 0 0 0 0
430 2 0.28 1 7.323645023432415 2.8749460284351773 0 0 0 0
453 2 0.28 1 7.176728818402904 3.1587014885567704 0 0 0 0
456 2 0.28 1 7.191290282463026 2.5837624710066125 0 0 0 0
170 1 0.2 1 7.454497544345094 3.1253087250461404 0 0 0 0
182 1 0.2 1 7.635689193438024 3.282371288803315 0 0 0 0
388 2 0.28 1 7.660740070558574 3.5608614681735187 0 0 0 0
455 2 0.28 1 7.7218071703327995 3.016334136491663 0 0 0 0
473 2 0.28 1 7.660740070558574 3.5608614681735187 0 0 0 0
149 1 0.2 1 7.991927720064371 3.089677758654226 0 0 0 0
398 2 0.28 1 7.906422206160617 3.3561554723218476 0 0 0 0
416 2 0.28 1 7.603079588423825 2.7194095363951867 0 0 0 0
440 2 0.28 1 7.906422206160617 3.3561554723218476 0 0 0 0
120 1 0.2 1 8.17615699379677 3.281527984905775 0 0 0 0
131 1 0.2 1 8.228074798873656 3.047257734791863 0 0 0 0
160 1 0.2 1 8.125781608182145 3.779451974144299 0 0 0 0
202 1 0.2 1 8.142765766197712 3.5228465894387595 0 0 0 0
217 1 0.2 1 8.330881047671218 3.9036624212168696 0 0 0 0
250 1 0.2 1 8.357906234304554 3.629121875490741 0 0 0 0
476 2 0.28 1 8.653333597337955 3.484759360888869 0 0 0 0
221 1 0.2 1 8.38950331754668 3.391216591903741 0 0 0 0
431 2 0.28 1 8.912387908479321 3.810220409270464 0 0 0 0
135 1 0.2 1 5.137106680823029 4.331650825377166 0 0 0 0
491 2 0.28 1 8.709651479007384 5.4474889915805385 0 0 0 0
469 2 0.28 1 8.31064071459016 6.034907845518753 0 0 0 0
206 1 0.2 1 5.284320691059472 3.8014511342277504 0 0 0 0
238 1 0.2 1 5.137106680823029 4.331650825377166 0 0 0 0
468 2 0.28 1 5.160616461241329 4.052629807320285 0 0 0 0
488 2 0.28 1 5.296661693302407 3.522710520868875 0 0 0 0
185 1 0.2 1 5.503766874192112 3.7106616644618535 0 0 0 0
413 2 0.28 1 5.4070996563110745 4.262261231761705 0 0 0 0
485 2 0.28 1 5.4070996563110745 4.262261231761705 0 0 0 0
150 1 0.2 1 5.635744951658647 4.101058398006814 0 0 0 0
168 1 0.2 1 5.740885302646486 2.876793457834353 0 0 0 0
178 1 0.2 1 5.775163750855575 4.289268295477679 0 0 0 0
189 1 0.2 1 5.4311895594441895 3.9843041885212465 0 0 0 0
229 1 0.2 1 5.295045133308819 4.519403741574142 0 0 0 0
422 2 0.28 1 5.608822850995094 3.452298348915525 0 0 0 0
425 2 0.28 1 5.608822850995094 3.452298348915525 0 0 0 0
480 2 0.28 1 5.747288812579565 3.8462555716951203 0 0 0 0
482 2 0.28 1 5.606860608250671 4.511773306449663 0 0 0 0
209 1 0.2 1 5.88658457155213 4.500903096513269 0 0 0 0
248 1 0.2 1 5.897906267703215 4.083104772864002 0 0 0 0
414 2 0.28 1 5.928584993372711 3.4528415665938366 0 0 0 0
444 2 0.28 1 5.747288812579565 3.8462555716951203 0 0 0 0
162 1 0.2 1 6.165445771971395 4.505741924242266 0 0 0 0
188 1 0.2 1 6.165445771971395 4.505741924242266 0 0 0 0
193 1 0.2 1 5.897906267703215 4.083104772864002 0 0 0 0
500 2 0.28 1 6.21386501660125 3.308009933651357 0 0 0 0
184 1 0.2 1 6.587546064584255 4.24872674243748 0 0 0 0
234 1 0.2 1 6.189954891346486 3.585931656571025 0 0 0 0
245 1 0.2 1 6.650069055096738 3.4563046395395247 0 0 0 0
437 2 0.28 1 6.148739868876721 3.959037445124532 0 0 0 0
466 2 0.28 1 6.6526731381236095 3.738280032148312 0 0 0 0
471 2 0.28 1 6.465641687482844 3.99719029217561 0 0 0 0
117 1 0.2 1 6.372741507798652 3.738169177645571 0 0 0 0
118 1 0.2 1 6.879601258193599 3.5242526121985165 0 0 0 0
144 1 0.2 1 6.931681022770231 3.7575598722440904 0 0 0 0
243 1 0.2 1 6.887427336840434 4.637026074024024 0 0 0 0
244 1 0.2 1 6.930354032444163 3.2903453810731365 0 0 0 0
391 2 0.28 1 6.6526731381236095 3.738280032148312 0 0 0 0
397 2 0.28 1 7.089481566848378 3.988196921470979 0 0 0 0
407 2 0.28 1 6.776187892577057 4.043257074188993 0 0 0 0
411 2 0.28 1 7.089481566848378 3.988196921470979 0 0 0 0
495 2 0.28 1 6.980214200475667 4.287791090647293 0 0 0 0
122 1 0.2 1 7.175566445411125 3.7219274548142596 0 0 0 0
153 1 0.2 1 7.368501209696746 3.9787744191477774 0 0 0 0
167 1 0.2 1 7.4138028569839305 3.693344908904162 0 0 0 0
216 1 0.2 1 7.2505582975291185 4.217420177512921 0 0 0 0
242 1 0.2 1 7.368501209696746 3.9787744191477774 0 0 0 0
418 2 0.28 1 7.382764714360019 3.4030762112217987 0 0 0 0
463 2 0.28 1 7.375232580552545 4.468035635491383 0 0 0 0
464 2 0.28 1 7.089481566848378 3.988196921470979 0 0 0 0
481 2 0.28 1 7.62774003664916 3.8779299718715117 0 0 0 0
165 1 0.2 1 7.905302511534382 3.8730278997053795 0 0 0 0
225 1 0.2 1 7.4882586395841555 4.186033000616073 0 0 0 0
449 2 0.28 1 7.800678918554037 4.145869543533419 0 0 0 0
139 1 0.2 1 8.08488060914939 4.030373119464679 0 0 0 0
203 1 0.2 1 8.296943145499114 4.141053397020813 0 0 0 0
224 1 0.2 1 7.930701144973992 3.6349132431295477 0 0 0 0
387 2 0.28 1 7.857511060726656 4.541198322571595 0 0 0 0
415 2 0.28 1 8.168018204875272 4.615555077834754 0 0 0 0
454 2 0.28 1 8.074765525820295 4.3095531314836535 0 0 0 0
487 2 0.28 1 8.168018204875272 4.615555077834754 0 0 0 0
134 1 0.2 1 8.535591783318663 4.152126710430218 0 0 0 0
223 1 0.2 1 8.342242379460618 4.390681221270612 0 0 0 0
247 1 0.2 1 8.694096183547664 4.331641575273959 0 0 0 0
396 2 0.28 1 8.950942290261695 4.220666667090437 0 0 0 0
467 2 0.28 1 8.590147221812463 3.7983858204342633 0 0 0 0
249 1 0.2 1 8.743294253383848 4.032961070294476 0 0 0 0
433 2 0.28 1 8.390251548122588 5.428166734961379 0 0 0 0
204 1 0.2 1 5.295045133308819 4.519403741574142 0 0 0 0
420 2 0.28 1 5.17966715944785 4.827043992011377 0 0 0 0
432 2 0.28 1 5.17966715944785 4.827043992011377 0 0 0 0
438 2 0.28 1 5.17966715944785 4.827043992011377 0 0 0 0
119 1 0.2 1 5.318790525756623 5.346120011610042 0 0 0 0
133 1 0.2 1 5.442529500608568 4.736246441878491 0 0 0 0
385 2 0.28 1 5.606860608250671 4.511773306449663 0 0 0 0
406 2 0.28 1 5.433382673803197 5.018837262107157 0 0 0 0
470 2 0.28 1 5.606860608250671 4.511773306449663 0 0 0 0
126 1 0.2 1 5.999537845774499 5.226724136636346 0 0 0 0
132 1 0.2 1 5.88658457155213 4.500903096513269 0 0 0 0
190 1 0.2 1 6.013200490635648 4.297108100329779 0 0 0 0
198 1 0.2 1 6.013200490635648 4.297108100329779 0 0 0 0
207 1 0.2 1 6.227854582944032 5.29626661517625 0 0 0 0
212 1 0.2 1 5.915735001075708 5.003070628974108 0 0 0 0
228 1 0.2 1 5.77921117234412 5.318813646666703 0 0 0 0
421 2 0.28 1 5.709215514818015 4.814636936268918 0 0 0 0
429 2 0.28 1 5.709215514818015 4.814636936268918 0 0 0 0
490 2 0.28 1 6.021062568304673 4.745252890710007 0 0 0 0
128 1 0.2 1 6.152271212936176 4.996968091652315 0 0 0 0
403 2 0.28 1 6.021062568304673 4.745252890710007 0 0 0 0
457 2 0.28 1 6.28696596361741 4.2538148577648425 0 0 0 0
492 2 0.28 1 6.33595745734346 4.787694733039045 0 0 0 0
494 2 0.28 1 6.316618565273996 5.561227062304919 0 0 0 0
137 1 0.2 1 6.661808014025793 4.718147706497888 0 0 0 0
161 1 0.2 1 6.661808014025793 4.718147706497888 0 0 0 0
195 1 0.2 1 6.651555579613267 4.957417243303854 0 0 0 0
232 1 0.2 1 6.749891073307013 4.441339650144952 0 0 0 0
405 2 0.28 1 6.412120015784874 5.091971584820906 0 0 0 0
443 2 0.28 1 6.842301162746109 5.747500509669903 0 0 0 0
447 2 0.28 1 6.479376300153179 4.50609220008668 0 0 0 0
496 2 0.28 1 6.56795168896238 5.363541018827224 0 0 0 0
499 2 0.28 1 6.479376300153179 4.50609220008668 0 0 0 0
210 1 0.2 1 6.883432802682494 4.902561362614333 0 0 0 0
235 1 0.2 1 6.883432802682494 4.902561362614333 0 0 0 0
402 2 0.28 1 6.827012167468984 5.17672813307349 0 0 0 0
410 2 0.28 1 7.120746295652097 5.050522151780782 0 0 0 0
460 2 0.28 1 6.827012167468984 5.17672813307349 0 0 0 0
478 2 0.28 1 6.827012167468984 5.17672813307349 0 0 0 0
123 1 0.2 1 7.1049558076978165 4.535919607494291 0 0 0 0
152 1 0.2 1 7.6370769030870145 4.372500167272322 0 0 0 0
220 1 0.2 1 7.2505582975291185 4.217420177512921 0 0 0 0
230 1 0.2 1 7.083999813585885 4.7732749569440305 0 0 0 0
458 2 0.28 1 7.120746295652097 5.050522151780782 0 0 0 0
241 1 0.2 1 7.398129585479716 5.079000395832685 0 0 0 0
219 1 0.2 1 7.888283449231764 4.817289290952282 0 0 0 0
484 2 0.28 1 7.638121458813784 4.938573363714953 0 0 0 0
493 2 0.28 1 8.14137416242037 4.935497579682117 0 0 0 0
140 1 0.2 1 8.382913115461523 4.794545698294548 0 0 0 0
393 2 0.28 1 8.14137416242037 4.935497579682117 0 0 0 0
409 2 0.28 1 8.553976025197086 4.573586766718799 0 0 0 0
423 2 0.28 1 8.643019240054695 4.897081731188303 0 0 0 0
451 2 0.28 1 8.882823527734805 4.53803337001303 0 0 0 0
479 2 0.28 1 8.643019240054695 4.897081731188303 0 0 0 0
180 1 0.2 1 8.91101276725698 4.816449353896079 0 0 0 0
233 1 0.2 1 5.174108496710556 5.122237841371685 0 0 0 0
88 1 0.2 1 5.061185497838784 4.573255341283233 0 0 0 0
395 2 0.28 1 5.2456755076822255 5.616187301379398 0 0 0 0
446 2 0.28 1 5.2456755076822255 5.616187301379398 0 0 0 0
465 2 0.28 1 5.175293486748021 6.558155746752362 0 0 0 0
154 1 0.2 1 5.5446653748547 5.2746943185960005 0 0 0 0
166 1 0.2 1 5.231264584550664 5.8949984350973805 0 0 0 0
211 1 0.2 1 5.457386582945089 5.814552832612771 0 0 0 0
240 1 0.2 1 5.191372514964566 6.148251199913421 0 0 0 0
428 2 0.28 1 5.401831699696885 6.332484889715314 0 0 0 0
151 1 0.2 1 5.410734808210769 6.053073295697406 0 0 0 0
181 1 0.2 1 5.639239756290435 5.984639861354835 0 0 0 0
226 1 0.2 1 5.698573938897811 5.094107337613899 0 0 0 0
435 2 0.28 1 5.558217285305061 5.553504246475212 0 0 0 0
477 2 0.28 1 5.69398476244154 6.46229300155541 0 0 0 0
497 2 0.28 1 5.558217285305061 5.553504246475212 0 0 0 0
145 1 0.2 1 6.000393569813918 6.18336172785757 0 0 0 0
159 1 0.2 1 5.738509413658681 5.7676276591933275 0 0 0 0
173 1 0.2 1 5.760876747016064 6.190778090747508 0 0 0 0
197 1 0.2 1 5.878669545460904 5.9767814331924765 0 0 0 0
246 1 0.2 1 5.836306763795409 5.550110386501675 0 0 0 0
392 2 0.28 1 6.035548033855658 5.745222338574426 0 0 0 0
419 2 0.28 1 6.035548033855658 5.745222338574426 0 0 0 0
158 1 0.2 1 6.02660084972445 6.421686519081779 0 0 0 0
205 1 0.2 1 6.055839179448298 5.460255349681998 0 0 0 0
213 1 0.2 1 6.298016697189575 5.840262489382369 0 0 0 0
399 2 0.28 1 6.316618565273996 5.561227062304919 0 0 0 0
434 2 0.28 1 6.316618565273996 5.561227062304919 0 0 0 0
148 1 0.2 1 6.5856039503167185 5.638275524640619 0 0 0 0
222 1 0.2 1 6.2065600740428 6.061468954632775 0 0 0 0
389 2 0.28 1 6.297647420021267 6.491423364382713 0 0 0 0
394 2 0.28 1 6.566376997217445 5.9137417558467495 0 0 0 0
452 2 0.28 1 6.684917459644303 6.422761237925947 0 0 0 0
483 2 0.28 1 6.444861589292943 6.208170050774954 0 0 0 0
186 1 0.2 1 7.040127402823068 5.358580487941543 0 0 0 0
192 1 0.2 1 6.717766399521149 6.145570820623441 0 0 0 0
215 1 0.2 1 6.826787233894893 5.468097190663193 0 0 0 0
239 1 0.2 1 7.0851884061599915 5.608984032002864 0 0 0 0
442 2 0.28 1 6.827012167468984 5.17672813307349 0 0 0 0
450 2 0.28 1 7.043694055601426 5.9953360014143255 0 0 0 0
129 1 0.2 1 7.040127402823068 5.358580487941543 0 0 0 0
196 1 0.2 1 6.93129216926746 6.251906865706259 0 0 0 0
214 1 0.2 1 7.2598698735321525 5.817372023432051 0 0 0 0
445 2 0.28 1 7.35919278245789 5.552792676754029 0 0 0 0
472 2 0.28 1 6.990231480487281 6.525177938139301 0 0 0 0
136 1 0.2 1 7.63301927327222 5.495256258946972 0 0 0 0
176 1 0.2 1 7.509094279045658 5.290753720377053 0 0 0 0
183 1 0.2 1 7.745907584819605 5.252242528805558 0 0 0 0
187 1 0.2 1 7.269317301834083 5.287707872118679 0 0 0 0
390 2 0.28 1 7.755285557647865 6.054021463029544 0 0 0 0
412 2 0.28 1 7.209387452490407 6.2693433458873775 0 0 0 0
448 2 0.28 1 7.603304335592347 5.772727959279582 0 0 0 0
459 2 0.28 1 7.4350147521217 6.043770255928875 0 0 0 0
461 2 0.28 1 7.924590081427038 5.751550209294713 0 0 0 0
462 2 0.28 1 7.36000012941255 4.787255895602203 0 0 0 0
475 2 0.28 1 7.499614449067216 6.402521973916088 0 0 0 0
155 1 0.2 1 7.871768844709181 5.476995572325465 0 0 0 0
163 1 0.2 1 7.995455118759821 5.271632177117213 0 0 0 0
169 1 0.2 1 7.889471639061949 5.057017650897078 0 0 0 0
171 1 0.2 1 8.111650628758873 5.4813011093344866 0 0 0 0
177 1 0.2 1 8.031778603471968 6.009995448602838 0 0 0 0
200 1 0.2 1 7.596421439907496 4.6395538837448385 0 0 0 0
208 1 0.2 1 7.995455118759821 5.271632177117213 0 0 0 0
401 2 0.28 1 8.257417066842596 5.719710385402736 0 0 0 0
424 2 0.28 1 8.14137416242037 4.935497579682117 0 0 0 0
172 1 0.2 1 8.40144214243373 5.038462176560184 0 0 0 0
199 1 0.2 1 8.577694447617604 5.200800300634322 0 0 0 0
218 1 0.2 1 8.225163448453907 5.202492549997138 0 0 0 0
231 1 0.2 1 8.532714756431194 5.669005152543329 0 0 0 0
237 1 0.2 1 5.01173049870708 5.990190499484605 0 0 0 0
258 2 0.28 1 5.028059421575861 3.6976866029045845 0 0 0 0
308 2 0.28 1 5.028059421575861 3.6976866029045845 0 0 0 0
156 1 0.2 1 5.061185497838784 4.573255341283233 0 0 0 0
357 2 0.28 1 5.043967695196411 5.369891714929516 0 0 0 0

Velocities

19 0 0 0 0 0 0
61 0 0 0 0 0 0
103 0 0 0 0 0 0
266 0 0 0 0 0 0
17 0 0 0 0 0 0
112 0 0 0 0 0 0
368 0 0 0 0 0 0
370 0 0 0 0 0 0
371 0 0 0 0 0 0
16 0 0 0 0 0 0
46 0 0 0 0 0 0
47 0 0 0 0 0 0
303 0 0 0 0 0 0
338 0 0 0 0 0 0
30 0 0 0 0 0 0
64 0 0 0 0 0 0
78 0 0 0 0 0 0
110 0 0 0 0 0 0
284 0 0 0 0 0 0
3 0 0 0 0 0 0
24 0 0 0 0 0 0
63 0 0 0 0 0 0
74 0 0 0 0 0 0
80 0 0 0 0 0 0
330 0 0 0 0 0 0
25 0 0 0 0 0 0
272 0 0 0 0 0 0
280 0 0 0 0 0 0
287 0 0 0 0 0 0
336 0 0 0 0 0 0
382 0 0 0 0 0 0
32 0 0 0 0 0 0
43 0 0 0 0 0 0
286 0 0 0 0 0 0
326 0 0 0 0 0 0
364 0 0 0 0 0 0
276 0 0 0 0 0 0
374 0 0 0 0 0 0
6 0 0 0 0 0 0
70 0 0 0 0 0 0
95 0 0 0 0 0 0
334 0 0 0 0 0 0
86 0 0 0 0 0 0
281 0 0 0 0 0 0
315 0 0 0 0 0 0
9 0 0 0 0 0 0
38 0 0 0 0 0 0
299 0 0 0 0 0 0
375 0 0 0 0 0 0
384 0 0 0 0 0 0
69 0 0 0 0 0 0
84 0 0 0 0 0 0
101 0 0 0 0 0 0
251 0 0 0 0 0 0
292 0 0 0 0 0 0
271 0 0 0 0 0 0
302 0 0 0 0 0 0
13 0 0 0 0 0 0
15 0 0 0 0 0 0
58 0 0 0 0 0 0
265 0 0 0 0 0 0
291 0 0 0 0 0 0
310 0 0 0 0 0 0
350 0 0 0 0 0 0
352 0 0 0 0 0 0
1 0 0 0 0 0 0
279 0 0 0 0 0 0
283 0 0 0 0 0 0
319 0 0 0 0 0 0
325 0 0 0 0 0 0
361 0 0 0 0 0 0
317 0 0 0 0 0 0
33 0 0 0 0 0 0
39 0 0 0 0 0 0
72 0 0 0 0 0 0
109 0 0 0 0 0 0
305 0 0 0 0 0 0
321 0 0 0 0 0 0
366 0 0 0 0 0 0
57 0 0 0 0 0 0
288 0 0 0 0 0 0
290 0 0 0 0 0 0
294 0 0 0 0 0 0
377 0 0 0 0 0 0
87 0 0 0 0 0 0
90 0 0 0 0 0 0
111 0 0 0 0 0 0
260 0 0 0 0 0 0
296 0 0 0 0 0 0
363 0 0 0 0 0 0
376 0 0 0 0 0 0
29 0 0 0 0 0 0
108 0 0 0 0 0 0
285 0 0 0 0 0 0
345 0 0 0 0 0 0